   36   36    1    1
  0.1746205E+02  0.8820702E-09  0.8820702E-09  0.9299549E-09  0.5000000E-15
  1.000000000000000E-004
  CAR 
 unknown system                          
  360  123  216
 
  0.0000000E+00  0.0000000E+00  0.0000000E+00  0.4081633E-02
   1      -27.5800
   2      -27.3900
   3      -27.3899
   4      -27.3899
   5      -27.3897
   6      -27.3838
   7      -27.3836
   8      -27.3835
   9      -27.3835
  10      -27.3834
  11      -27.3834
  12      -27.3833
  13      -27.3833
  14      -27.3832
  15      -27.3832
  16      -27.3831
  17      -27.3829
  18      -27.3829
  19      -27.3827
  20      -27.3809
  21      -27.3808
  22      -27.3806
  23      -27.3805
  24      -27.3133
  25      -27.3129
  26      -27.2841
  27      -27.2839
  28      -27.2826
  29      -27.2825
  30      -27.2825
  31      -27.2823
  32      -27.2394
  33      -27.2388
  34      -27.2051
  35      -27.2048
  36      -27.2033
  37      -27.2030
  38      -27.2009
  39      -27.2006
  40      -27.2005
  41      -27.2002
  42      -27.1737
  43      -27.1735
  44      -27.1734
  45      -27.1734
  46      -27.1732
  47      -27.1731
  48      -27.1617
  49      -27.1612
  50      -27.1577
  51      -27.1574
  52      -27.0859
  53      -27.0855
  54      -27.0524
  55      -27.0524
  56      -27.0427
  57      -27.0426
  58      -27.0425
  59      -27.0424
  60      -27.0303
  61      -27.0300
  62      -27.0299
  63      -27.0297
  64      -27.0283
  65      -27.0282
  66      -27.0279
  67      -27.0279
  68      -27.0278
  69      -27.0277
  70      -27.0276
  71      -27.0272
  72      -26.9851
  73      -26.9847
  74      -26.9846
  75      -26.9842
  76      -26.9817
  77      -26.9814
  78      -26.9739
  79      -26.9737
  80      -26.9736
  81      -26.9734
  82      -26.9689
  83      -26.9688
  84      -26.9688
  85      -26.9687
  86      -26.9655
  87      -26.9655
  88      -26.9654
  89      -26.9653
  90      -26.9652
  91      -26.9652
  92      -26.9651
  93      -26.9648
  94      -26.9441
  95      -26.9353
  96      -26.8939
  97      -26.8937
  98      -26.8927
  99      -26.8926
 100      -26.8872
 101      -26.8871
 102      -26.8870
 103      -26.8869
 104      -26.8863
 105      -26.8861
 106      -26.8812
 107      -26.8409
 108      -26.8370
 109       -0.2736
 110        1.5790
 111        1.5793
 112        2.2739
 113        2.2742
 114        2.2744
 115        2.2746
 116        2.2910
 117        2.2913
 118        3.1674
 119        3.1677
 120        3.1679
 121        3.1680
 122        3.1681
 123        3.1682
 124        3.1684
 125        3.1686
 126        3.1814
 127        3.1820
 128        3.1820
 129        3.1822
 130        3.2091
 131        4.1435
 132        4.1441
 133        4.1504
 134        4.1509
 135        4.1511
 136        4.1515
 137        4.1869
 138        4.1885
 139        4.4404
 140        4.4414
 141        4.4618
 142        4.4631
 143        4.4632
 144        4.4635
 145        4.4709
 146        4.4711
 147        4.4825
 148        4.4827
 149        4.5798
 150        4.5799
 151        4.6295
 152        4.6305
 153        4.6312
 154        4.6322
 155        4.7979
 156        4.7992
 157        4.7993
 158        4.8005
 159        5.1926
 160        5.1950
 161        5.1954
 162        5.1955
 163        5.1956
 164        5.1959
 165        5.1961
 166        5.1966
 167        5.1980
 168        5.1982
 169        5.1984
 170        5.2007
 171        5.2478
 172        5.2484
 173        5.2485
 174        5.2496
 175        5.2754
 176        5.2769
 177        5.6489
 178        5.6491
 179        5.6491
 180        5.6493
 181        5.9556
 182        5.9583
 183        6.0637
 184        6.0648
 185        6.1162
 186        6.1178
 187        6.4337
 188        6.4341
 189        6.4346
 190        6.4349
 191        6.4351
 192        6.4357
 193        6.4359
 194        6.4369
 195        6.4733
 196        6.4745
 197        6.4751
 198        6.4760
 199        6.4947
 200        6.4948
 201        6.5109
 202        6.5117
 203        6.5558
 204        6.5559
 205        6.5622
 206        6.5629
 207        6.5634
 208        6.5635
 209        6.5805
 210        6.6616
 211        6.6625
 212        6.6643
 213        6.6666
 214        6.6713
 215        6.6757
 216        6.6782
 
  0.1428571E+00 -0.1387779E-16  0.0000000E+00  0.8163265E-02
   1      -27.5751
   2      -27.4268
   3      -27.4217
   4      -27.4217
   5      -27.4024
   6      -27.4021
   7      -27.4020
   8      -27.4019
   9      -27.4000
  10      -27.3999
  11      -27.3956
  12      -27.3955
  13      -27.3955
  14      -27.3953
  15      -27.3628
  16      -27.3627
  17      -27.3600
  18      -27.3599
  19      -27.3592
  20      -27.3586
  21      -27.3418
  22      -27.3416
  23      -27.3406
  24      -27.3360
  25      -27.3204
  26      -27.3173
  27      -27.3110
  28      -27.3081
  29      -27.2513
  30      -27.2511
  31      -27.2408
  32      -27.2402
  33      -27.2219
  34      -27.2189
  35      -27.2170
  36      -27.2138
  37      -27.2009
  38      -27.1993
  39      -27.1957
  40      -27.1927
  41      -27.1902
  42      -27.1901
  43      -27.1898
  44      -27.1895
  45      -27.1879
  46      -27.1877
  47      -27.1512
  48      -27.1502
  49      -27.1282
  50      -27.1242
  51      -27.1148
  52      -27.0706
  53      -27.0702
  54      -27.0633
  55      -27.0579
  56      -27.0544
  57      -27.0432
  58      -27.0383
  59      -27.0381
  60      -27.0349
  61      -27.0347
  62      -27.0342
  63      -27.0319
  64      -27.0318
  65      -27.0298
  66      -27.0296
  67      -27.0279
  68      -27.0278
  69      -27.0241
  70      -27.0188
  71      -27.0186
  72      -27.0124
  73      -27.0005
  74      -26.9968
  75      -26.9793
  76      -26.9791
  77      -26.9772
  78      -26.9770
  79      -26.9726
  80      -26.9719
  81      -26.9717
  82      -26.9702
  83      -26.9697
  84      -26.9697
  85      -26.9692
  86      -26.9691
  87      -26.9669
  88      -26.9667
  89      -26.9596
  90      -26.9594
  91      -26.9582
  92      -26.9529
  93      -26.9512
  94      -26.9510
  95      -26.9398
  96      -26.9044
  97      -26.8991
  98      -26.8989
  99      -26.8979
 100      -26.8954
 101      -26.8941
 102      -26.8895
 103      -26.8893
 104      -26.8880
 105      -26.8834
 106      -26.8772
 107      -26.8506
 108      -26.8390
 109       -0.2102
 110        1.6329
 111        1.6331
 112        1.7186
 113        2.0410
 114        2.0542
 115        2.5771
 116        2.5963
 117        2.7909
 118        2.9601
 119        2.9603
 120        3.1094
 121        3.1096
 122        3.1212
 123        3.1214
 124        3.2591
 125        3.2697
 126        3.2699
 127        3.2823
 128        3.2826
 129        3.2838
 130        3.2840
 131        4.0345
 132        4.1202
 133        4.1283
 134        4.1809
 135        4.1891
 136        4.1898
 137        4.2123
 138        4.2200
 139        4.2599
 140        4.3220
 141        4.3325
 142        4.3329
 143        4.3573
 144        4.3945
 145        4.3951
 146        4.3968
 147        4.3975
 148        4.4840
 149        4.5132
 150        4.5629
 151        4.5808
 152        4.6108
 153        4.6328
 154        4.7271
 155        5.0285
 156        5.0291
 157        5.0358
 158        5.0365
 159        5.1360
 160        5.1371
 161        5.1765
 162        5.1771
 163        5.1776
 164        5.1784
 165        5.1962
 166        5.2133
 167        5.2208
 168        5.2377
 169        5.2387
 170        5.2401
 171        5.2414
 172        5.2426
 173        5.2667
 174        5.2676
 175        5.2685
 176        5.3249
 177        5.6374
 178        5.6377
 179        5.6403
 180        5.6405
 181        5.9081
 182        5.9106
 183        6.0133
 184        6.0576
 185        6.1653
 186        6.2125
 187        6.2908
 188        6.2913
 189        6.2933
 190        6.2938
 191        6.3256
 192        6.3261
 193        6.4008
 194        6.4387
 195        6.4539
 196        6.4565
 197        6.4688
 198        6.4693
 199        6.4982
 200        6.4983
 201        6.5089
 202        6.5102
 203        6.5104
 204        6.5327
 205        6.5328
 206        6.5729
 207        6.5814
 208        6.5830
 209        6.5831
 210        6.6054
 211        6.6488
 212        6.6641
 213        6.6918
 214        6.6925
 215        6.6987
 216        6.7073
 
  0.2857143E+00  0.0000000E+00  0.0000000E+00  0.8163265E-02
   1      -27.5607
   2      -27.4687
   3      -27.4508
   4      -27.4507
   5      -27.4155
   6      -27.4153
   7      -27.4150
   8      -27.4149
   9      -27.4137
  10      -27.4136
  11      -27.4074
  12      -27.4073
  13      -27.4072
  14      -27.4071
  15      -27.3745
  16      -27.3446
  17      -27.3444
  18      -27.3423
  19      -27.3421
  20      -27.3320
  21      -27.3310
  22      -27.3301
  23      -27.3298
  24      -27.3273
  25      -27.3258
  26      -27.3044
  27      -27.3036
  28      -27.3034
  29      -27.2563
  30      -27.2456
  31      -27.2451
  32      -27.2320
  33      -27.2308
  34      -27.2283
  35      -27.2276
  36      -27.2240
  37      -27.2208
  38      -27.2173
  39      -27.2159
  40      -27.1640
  41      -27.1630
  42      -27.1617
  43      -27.1614
  44      -27.1578
  45      -27.1576
  46      -27.1509
  47      -27.1439
  48      -27.1435
  49      -27.0970
  50      -27.0928
  51      -27.0807
  52      -27.0734
  53      -27.0688
  54      -27.0586
  55      -27.0585
  56      -27.0536
  57      -27.0534
  58      -27.0505
  59      -27.0381
  60      -27.0361
  61      -27.0348
  62      -27.0332
  63      -27.0331
  64      -27.0321
  65      -27.0318
  66      -27.0306
  67      -27.0304
  68      -27.0283
  69      -27.0228
  70      -27.0198
  71      -27.0157
  72      -27.0039
  73      -27.0019
  74      -27.0018
  75      -26.9858
  76      -26.9855
  77      -26.9811
  78      -26.9803
  79      -26.9802
  80      -26.9752
  81      -26.9751
  82      -26.9718
  83      -26.9718
  84      -26.9707
  85      -26.9707
  86      -26.9642
  87      -26.9627
  88      -26.9617
  89      -26.9616
  90      -26.9569
  91      -26.9568
  92      -26.9502
  93      -26.9359
  94      -26.9357
  95      -26.9350
  96      -26.9264
  97      -26.9207
  98      -26.9184
  99      -26.9183
 100      -26.9030
 101      -26.9016
 102      -26.8984
 103      -26.8968
 104      -26.8966
 105      -26.8898
 106      -26.8808
 107      -26.8669
 108      -26.8429
 109       -0.0226
 110        1.1764
 111        1.7899
 112        1.7901
 113        1.8840
 114        1.8924
 115        2.6691
 116        2.6693
 117        2.9368
 118        2.9568
 119        3.0841
 120        3.0842
 121        3.0921
 122        3.0923
 123        3.2118
 124        3.3300
 125        3.3303
 126        3.4027
 127        3.4184
 128        3.4187
 129        3.4310
 130        3.4313
 131        3.8988
 132        4.0736
 133        4.0885
 134        4.0899
 135        4.1095
 136        4.1101
 137        4.1116
 138        4.1122
 139        4.1226
 140        4.1415
 141        4.1524
 142        4.1737
 143        4.1890
 144        4.2505
 145        4.2759
 146        4.3105
 147        4.3185
 148        4.3846
 149        4.4107
 150        4.6757
 151        4.6876
 152        4.7258
 153        4.7443
 154        5.0471
 155        5.0910
 156        5.0921
 157        5.0995
 158        5.1207
 159        5.1767
 160        5.1900
 161        5.1910
 162        5.1940
 163        5.1950
 164        5.1999
 165        5.2069
 166        5.2596
 167        5.2604
 168        5.2610
 169        5.2620
 170        5.2841
 171        5.2849
 172        5.2866
 173        5.2878
 174        5.3619
 175        5.3633
 176        5.4759
 177        5.6639
 178        5.6645
 179        5.6714
 180        5.6718
 181        5.7887
 182        5.7909
 183        6.0102
 184        6.0507
 185        6.1430
 186        6.1435
 187        6.1647
 188        6.1652
 189        6.2076
 190        6.2297
 191        6.2623
 192        6.2733
 193        6.2738
 194        6.2921
 195        6.2942
 196        6.3378
 197        6.3519
 198        6.3524
 199        6.3783
 200        6.3882
 201        6.3887
 202        6.4440
 203        6.4529
 204        6.4782
 205        6.4783
 206        6.5146
 207        6.5804
 208        6.5889
 209        6.6129
 210        6.6311
 211        6.6682
 212        6.6761
 213        6.6763
 214        6.8238
 215        6.8351
 216        6.8802
 
  0.4285714E+00 -0.5551115E-16  0.0000000E+00  0.8163265E-02
   1      -27.5373
   2      -27.5061
   3      -27.4663
   4      -27.4663
   5      -27.4222
   6      -27.4221
   7      -27.4202
   8      -27.4201
   9      -27.4196
  10      -27.4195
  11      -27.4171
  12      -27.4171
  13      -27.4169
  14      -27.4168
  15      -27.3946
  16      -27.3398
  17      -27.3396
  18      -27.3346
  19      -27.3345
  20      -27.3333
  21      -27.3331
  22      -27.3324
  23      -27.3322
  24      -27.2994
  25      -27.2979
  26      -27.2822
  27      -27.2746
  28      -27.2742
  29      -27.2741
  30      -27.2657
  31      -27.2637
  32      -27.2559
  33      -27.2554
  34      -27.2404
  35      -27.2378
  36      -27.2356
  37      -27.2335
  38      -27.1850
  39      -27.1830
  40      -27.1569
  41      -27.1552
  42      -27.1338
  43      -27.1308
  44      -27.1255
  45      -27.1253
  46      -27.1204
  47      -27.1202
  48      -27.1048
  49      -27.0996
  50      -27.0893
  51      -27.0891
  52      -27.0848
  53      -27.0836
  54      -27.0834
  55      -27.0745
  56      -27.0684
  57      -27.0640
  58      -27.0547
  59      -27.0425
  60      -27.0382
  61      -27.0338
  62      -27.0336
  63      -27.0335
  64      -27.0333
  65      -27.0329
  66      -27.0327
  67      -27.0265
  68      -27.0120
  69      -27.0104
  70      -26.9961
  71      -26.9933
  72      -26.9902
  73      -26.9900
  74      -26.9863
  75      -26.9836
  76      -26.9781
  77      -26.9781
  78      -26.9766
  79      -26.9766
  80      -26.9750
  81      -26.9749
  82      -26.9748
  83      -26.9746
  84      -26.9729
  85      -26.9728
  86      -26.9653
  87      -26.9598
  88      -26.9592
  89      -26.9586
  90      -26.9585
  91      -26.9579
  92      -26.9569
  93      -26.9568
  94      -26.9535
  95      -26.9466
  96      -26.9465
  97      -26.9277
  98      -26.9209
  99      -26.9207
 100      -26.9156
 101      -26.9127
 102      -26.9108
 103      -26.9075
 104      -26.9073
 105      -26.9048
 106      -26.9005
 107      -26.8572
 108      -26.8490
 109        0.2812
 110        0.6876
 111        1.8063
 112        1.8092
 113        2.0355
 114        2.0357
 115        2.3426
 116        2.3428
 117        3.0782
 118        3.0783
 119        3.0811
 120        3.0812
 121        3.3317
 122        3.3443
 123        3.3447
 124        3.3512
 125        3.4946
 126        3.6120
 127        3.6123
 128        3.6200
 129        3.6219
 130        3.6222
 131        3.7271
 132        3.7453
 133        3.7646
 134        3.8448
 135        3.8452
 136        3.8510
 137        3.8514
 138        3.8711
 139        4.0533
 140        4.1760
 141        4.1967
 142        4.1990
 143        4.2001
 144        4.2153
 145        4.2232
 146        4.2842
 147        4.3051
 148        4.3959
 149        4.4001
 150        4.7478
 151        4.7520
 152        4.8501
 153        4.8681
 154        4.9784
 155        4.9973
 156        5.0663
 157        5.0675
 158        5.1099
 159        5.1196
 160        5.2160
 161        5.2358
 162        5.2367
 163        5.2442
 164        5.2451
 165        5.2899
 166        5.2909
 167        5.3002
 168        5.3012
 169        5.3124
 170        5.3130
 171        5.3137
 172        5.3150
 173        5.4138
 174        5.4886
 175        5.4901
 176        5.6381
 177        5.6400
 178        5.7038
 179        5.8112
 180        5.8572
 181        5.8575
 182        5.8799
 183        5.8801
 184        5.9687
 185        6.0547
 186        6.0579
 187        6.0582
 188        6.0659
 189        6.0662
 190        6.0909
 191        6.1251
 192        6.1255
 193        6.1418
 194        6.1551
 195        6.1555
 196        6.1744
 197        6.3348
 198        6.3351
 199        6.3397
 200        6.3922
 201        6.3949
 202        6.4174
 203        6.4176
 204        6.4285
 205        6.4705
 206        6.4802
 207        6.5489
 208        6.5836
 209        6.5874
 210        6.5963
 211        6.6925
 212        6.8278
 213        6.8280
 214        6.8330
 215        6.9472
 216        6.9914
 
  0.0000000E+00  0.1428571E+00  0.0000000E+00  0.8163265E-02
   1      -27.5751
   2      -27.4268
   3      -27.4218
   4      -27.4217
   5      -27.4024
   6      -27.4023
   7      -27.4019
   8      -27.4018
   9      -27.4000
  10      -27.3999
  11      -27.3956
  12      -27.3955
  13      -27.3955
  14      -27.3953
  15      -27.3628
  16      -27.3626
  17      -27.3600
  18      -27.3598
  19      -27.3592
  20      -27.3586
  21      -27.3418
  22      -27.3416
  23      -27.3405
  24      -27.3360
  25      -27.3204
  26      -27.3173
  27      -27.3110
  28      -27.3081
  29      -27.2513
  30      -27.2510
  31      -27.2408
  32      -27.2402
  33      -27.2219
  34      -27.2189
  35      -27.2171
  36      -27.2138
  37      -27.2009
  38      -27.1993
  39      -27.1957
  40      -27.1928
  41      -27.1902
  42      -27.1901
  43      -27.1898
  44      -27.1895
  45      -27.1879
  46      -27.1877
  47      -27.1512
  48      -27.1501
  49      -27.1281
  50      -27.1243
  51      -27.1148
  52      -27.0706
  53      -27.0702
  54      -27.0633
  55      -27.0579
  56      -27.0544
  57      -27.0432
  58      -27.0382
  59      -27.0381
  60      -27.0349
  61      -27.0348
  62      -27.0342
  63      -27.0319
  64      -27.0317
  65      -27.0297
  66      -27.0296
  67      -27.0280
  68      -27.0278
  69      -27.0241
  70      -27.0187
  71      -27.0186
  72      -27.0125
  73      -27.0004
  74      -26.9968
  75      -26.9793
  76      -26.9791
  77      -26.9772
  78      -26.9770
  79      -26.9725
  80      -26.9719
  81      -26.9717
  82      -26.9702
  83      -26.9697
  84      -26.9697
  85      -26.9692
  86      -26.9691
  87      -26.9669
  88      -26.9667
  89      -26.9596
  90      -26.9594
  91      -26.9582
  92      -26.9529
  93      -26.9511
  94      -26.9509
  95      -26.9397
  96      -26.9044
  97      -26.8991
  98      -26.8989
  99      -26.8979
 100      -26.8954
 101      -26.8941
 102      -26.8895
 103      -26.8893
 104      -26.8880
 105      -26.8834
 106      -26.8772
 107      -26.8506
 108      -26.8390
 109       -0.2102
 110        1.6329
 111        1.6331
 112        1.7187
 113        2.0410
 114        2.0542
 115        2.5771
 116        2.5963
 117        2.7910
 118        2.9601
 119        2.9603
 120        3.1094
 121        3.1096
 122        3.1212
 123        3.1214
 124        3.2591
 125        3.2697
 126        3.2700
 127        3.2822
 128        3.2824
 129        3.2838
 130        3.2841
 131        4.0347
 132        4.1201
 133        4.1282
 134        4.1809
 135        4.1890
 136        4.1900
 137        4.2123
 138        4.2198
 139        4.2604
 140        4.3220
 141        4.3325
 142        4.3329
 143        4.3569
 144        4.3944
 145        4.3951
 146        4.3970
 147        4.3977
 148        4.4840
 149        4.5132
 150        4.5628
 151        4.5804
 152        4.6108
 153        4.6328
 154        4.7275
 155        5.0284
 156        5.0291
 157        5.0357
 158        5.0364
 159        5.1362
 160        5.1373
 161        5.1761
 162        5.1772
 163        5.1773
 164        5.1783
 165        5.1963
 166        5.2133
 167        5.2208
 168        5.2375
 169        5.2385
 170        5.2401
 171        5.2416
 172        5.2428
 173        5.2667
 174        5.2679
 175        5.2684
 176        5.3247
 177        5.6376
 178        5.6378
 179        5.6402
 180        5.6404
 181        5.9081
 182        5.9106
 183        6.0133
 184        6.0574
 185        6.1656
 186        6.2124
 187        6.2906
 188        6.2911
 189        6.2935
 190        6.2941
 191        6.3256
 192        6.3261
 193        6.4006
 194        6.4386
 195        6.4541
 196        6.4564
 197        6.4690
 198        6.4696
 199        6.4983
 200        6.4984
 201        6.5092
 202        6.5102
 203        6.5104
 204        6.5327
 205        6.5331
 206        6.5726
 207        6.5805
 208        6.5829
 209        6.5831
 210        6.6056
 211        6.6484
 212        6.6639
 213        6.6917
 214        6.6922
 215        6.6968
 216        6.7049
 
  0.1428571E+00  0.1428571E+00  0.0000000E+00  0.8163265E-02
   1      -27.5655
   2      -27.4452
   3      -27.4451
   4      -27.4354
   5      -27.4354
   6      -27.4353
   7      -27.4352
   8      -27.4081
   9      -27.4081
  10      -27.3995
  11      -27.3994
  12      -27.3797
  13      -27.3795
  14      -27.3794
  15      -27.3793
  16      -27.3727
  17      -27.3724
  18      -27.3543
  19      -27.3542
  20      -27.3374
  21      -27.3230
  22      -27.3228
  23      -27.3228
  24      -27.3225
  25      -27.3186
  26      -27.3184
  27      -27.3143
  28      -27.2780
  29      -27.2778
  30      -27.2440
  31      -27.2435
  32      -27.2392
  33      -27.2391
  34      -27.2326
  35      -27.2243
  36      -27.2188
  37      -27.2158
  38      -27.1874
  39      -27.1873
  40      -27.1855
  41      -27.1854
  42      -27.1842
  43      -27.1693
  44      -27.1689
  45      -27.1689
  46      -27.1686
  47      -27.1602
  48      -27.1057
  49      -27.1004
  50      -27.0938
  51      -27.0937
  52      -27.0690
  53      -27.0689
  54      -27.0573
  55      -27.0572
  56      -27.0516
  57      -27.0474
  58      -27.0472
  59      -27.0471
  60      -27.0469
  61      -27.0417
  62      -27.0396
  63      -27.0394
  64      -27.0393
  65      -27.0392
  66      -27.0281
  67      -27.0276
  68      -27.0146
  69      -27.0144
  70      -27.0143
  71      -27.0141
  72      -27.0115
  73      -27.0114
  74      -26.9887
  75      -26.9883
  76      -26.9807
  77      -26.9806
  78      -26.9805
  79      -26.9803
  80      -26.9730
  81      -26.9728
  82      -26.9727
  83      -26.9726
  84      -26.9719
  85      -26.9716
  86      -26.9715
  87      -26.9700
  88      -26.9699
  89      -26.9477
  90      -26.9473
  91      -26.9469
  92      -26.9456
  93      -26.9455
  94      -26.9455
  95      -26.9452
  96      -26.9158
  97      -26.9157
  98      -26.9127
  99      -26.9126
 100      -26.9056
 101      -26.9054
 102      -26.8936
 103      -26.8934
 104      -26.8877
 105      -26.8775
 106      -26.8773
 107      -26.8701
 108      -26.8417
 109       -0.0853
 110        1.4869
 111        1.4873
 112        1.7379
 113        1.7382
 114        2.4451
 115        2.4454
 116        2.8553
 117        2.8555
 118        2.8558
 119        2.8558
 120        3.0518
 121        3.0521
 122        3.3069
 123        3.3074
 124        3.3075
 125        3.3076
 126        3.3479
 127        3.3483
 128        3.3485
 129        3.3486
 130        3.3556
 131        3.9978
 132        3.9981
 133        4.1160
 134        4.1550
 135        4.1556
 136        4.1591
 137        4.1892
 138        4.1901
 139        4.1917
 140        4.1922
 141        4.1961
 142        4.2048
 143        4.2212
 144        4.2217
 145        4.2650
 146        4.2657
 147        4.3516
 148        4.4353
 149        4.4363
 150        4.5316
 151        4.6202
 152        4.7627
 153        4.8649
 154        4.8657
 155        5.1278
 156        5.1288
 157        5.1294
 158        5.1298
 159        5.1345
 160        5.1358
 161        5.1705
 162        5.1714
 163        5.1800
 164        5.1803
 165        5.2329
 166        5.2330
 167        5.2335
 168        5.2350
 169        5.2458
 170        5.2470
 171        5.3124
 172        5.3136
 173        5.3139
 174        5.3150
 175        5.3509
 176        5.3518
 177        5.6472
 178        5.6479
 179        5.6536
 180        5.6536
 181        5.8231
 182        5.8255
 183        6.0235
 184        6.0263
 185        6.2342
 186        6.2349
 187        6.2351
 188        6.2357
 189        6.2389
 190        6.2397
 191        6.2401
 192        6.2409
 193        6.2799
 194        6.2813
 195        6.2835
 196        6.3096
 197        6.3340
 198        6.3351
 199        6.3707
 200        6.3713
 201        6.4775
 202        6.4776
 203        6.5550
 204        6.5561
 205        6.5666
 206        6.5675
 207        6.6560
 208        6.6561
 209        6.6659
 210        6.6672
 211        6.7081
 212        6.7085
 213        6.7087
 214        6.7091
 215        6.7137
 216        6.7151
 
  0.2857143E+00  0.1428571E+00  0.0000000E+00  0.8163265E-02
   1      -27.5466
   2      -27.4849
   3      -27.4575
   4      -27.4574
   5      -27.4564
   6      -27.4408
   7      -27.4407
   8      -27.4243
   9      -27.4243
  10      -27.4032
  11      -27.4031
  12      -27.3944
  13      -27.3943
  14      -27.3839
  15      -27.3808
  16      -27.3640
  17      -27.3639
  18      -27.3630
  19      -27.3553
  20      -27.3387
  21      -27.3102
  22      -27.3093
  23      -27.3090
  24      -27.2975
  25      -27.2935
  26      -27.2892
  27      -27.2889
  28      -27.2881
  29      -27.2646
  30      -27.2623
  31      -27.2516
  32      -27.2511
  33      -27.2483
  34      -27.2433
  35      -27.2418
  36      -27.2398
  37      -27.2374
  38      -27.2184
  39      -27.1915
  40      -27.1543
  41      -27.1530
  42      -27.1381
  43      -27.1379
  44      -27.1354
  45      -27.1352
  46      -27.1299
  47      -27.1185
  48      -27.0948
  49      -27.0887
  50      -27.0832
  51      -27.0780
  52      -27.0773
  53      -27.0741
  54      -27.0739
  55      -27.0694
  56      -27.0611
  57      -27.0610
  58      -27.0550
  59      -27.0548
  60      -27.0501
  61      -27.0460
  62      -27.0448
  63      -27.0419
  64      -27.0418
  65      -27.0365
  66      -27.0191
  67      -27.0118
  68      -27.0117
  69      -27.0107
  70      -27.0066
  71      -27.0030
  72      -26.9934
  73      -26.9931
  74      -26.9930
  75      -26.9857
  76      -26.9856
  77      -26.9848
  78      -26.9837
  79      -26.9795
  80      -26.9794
  81      -26.9750
  82      -26.9749
  83      -26.9748
  84      -26.9747
  85      -26.9713
  86      -26.9712
  87      -26.9687
  88      -26.9686
  89      -26.9643
  90      -26.9462
  91      -26.9439
  92      -26.9438
  93      -26.9409
  94      -26.9358
  95      -26.9358
  96      -26.9309
  97      -26.9307
  98      -26.9306
  99      -26.9278
 100      -26.9261
 101      -26.9104
 102      -26.9042
 103      -26.9029
 104      -26.9028
 105      -26.8964
 106      -26.8857
 107      -26.8668
 108      -26.8483
 109        0.1600
 110        0.9685
 111        1.3470
 112        1.9394
 113        1.9396
 114        2.3536
 115        2.5408
 116        2.5410
 117        2.7950
 118        2.7951
 119        2.8880
 120        3.3410
 121        3.3411
 122        3.3545
 123        3.3770
 124        3.3773
 125        3.4075
 126        3.4733
 127        3.4737
 128        3.5216
 129        3.5218
 130        3.5369
 131        3.7642
 132        3.8633
 133        3.8943
 134        3.8947
 135        3.9763
 136        3.9893
 137        3.9897
 138        4.0203
 139        4.0215
 140        4.0875
 141        4.1319
 142        4.1495
 143        4.1972
 144        4.2082
 145        4.2351
 146        4.3350
 147        4.3360
 148        4.4362
 149        4.4947
 150        4.5202
 151        4.6974
 152        4.8969
 153        4.9710
 154        4.9814
 155        4.9994
 156        5.0955
 157        5.0967
 158        5.1025
 159        5.1630
 160        5.1641
 161        5.1850
 162        5.1989
 163        5.2547
 164        5.2554
 165        5.2782
 166        5.2789
 167        5.2883
 168        5.2892
 169        5.2932
 170        5.2944
 171        5.3416
 172        5.3542
 173        5.3554
 174        5.4178
 175        5.4193
 176        5.5498
 177        5.6905
 178        5.6925
 179        5.7069
 180        5.7074
 181        5.8666
 182        5.8669
 183        5.9614
 184        6.0310
 185        6.0383
 186        6.0386
 187        6.0492
 188        6.0689
 189        6.0829
 190        6.0833
 191        6.1755
 192        6.1759
 193        6.1810
 194        6.2637
 195        6.2689
 196        6.2768
 197        6.2772
 198        6.3316
 199        6.3771
 200        6.4300
 201        6.4302
 202        6.4330
 203        6.4861
 204        6.5000
 205        6.5006
 206        6.5106
 207        6.5894
 208        6.5959
 209        6.6317
 210        6.6644
 211        6.7283
 212        6.7814
 213        6.7822
 214        6.8105
 215        6.8307
 216        6.8957
 
  0.4285714E+00  0.1428571E+00  0.0000000E+00  0.8163265E-02
   1      -27.5193
   2      -27.5192
   3      -27.4653
   4      -27.4653
   5      -27.4602
   6      -27.4370
   7      -27.4370
   8      -27.4361
   9      -27.4360
  10      -27.4027
  11      -27.4026
  12      -27.4024
  13      -27.4023
  14      -27.3942
  15      -27.3835
  16      -27.3662
  17      -27.3616
  18      -27.3587
  19      -27.3586
  20      -27.3096
  21      -27.3039
  22      -27.3038
  23      -27.3035
  24      -27.3019
  25      -27.3008
  26      -27.2763
  27      -27.2737
  28      -27.2689
  29      -27.2666
  30      -27.2660