 vasp.4.6.28 25Jul05 complex 
 executed on             LinuxIFC date 2016.11.25  11:40:21
 running on    4 nodes
 distr:  one band on    1 nodes,    4 groups


--------------------------------------------------------------------------------------------------------


 INCAR:
 POTCAR:   PAW_PBE Ti_pv 07Sep2000                
 POTCAR:   PAW_PBE Ti_pv 07Sep2000                
   VRHFIN =Ti: d3 s1                                                            
   LEXCH  = PE                                                                  
   EATOM  =  1042.3781 eV,   76.6126 Ry                                         
                                                                                
   TITEL  = PAW_PBE Ti_pv 07Sep2000                                             
   LULTRA =        F    use ultrasoft PP ?                                      
   IUNSCR =        1    unscreen: 0-lin 1-nonlin 2-no                           
   RPACOR =    2.200    partial core radius                                     
   POMASS =   47.880; ZVAL   =   10.000    mass and valenz                      
   RCORE  =    2.500    outmost cutoff radius                                   
   RWIGS  =    2.500; RWIGS  =    1.323    wigner-seitz radius (au A)           
   ENMAX  =  222.338; ENMIN  =  166.753 eV                                      
   RCLOC  =    1.701    cutoff for local pot                                    
   LCOR   =        T    correct aug charges                                     
   LPAW   =        T    paw PP                                                  
   EAUG   =  482.848                                                            
   DEXC   =    -.008                                                            
   RMAX   =    3.092    core radius for proj-oper                               
   RAUG   =    1.300    factor for augmentation sphere                          
   RDEP   =    2.538    radius for radial grids                                 
   QCUT   =   -4.042; QGAM   =    8.085    optimization parameters              
                                                                                
   Description                                                                  
     l     E      TYP  RCUT    TYP  RCUT                                        
     1   .000     23  2.300                                                     
     1  -.100     23  2.300                                                     
     2   .000     23  2.500                                                     
     2   .000     23  2.500                                                     
     0   .000     23  2.500                                                     
     0  1.500     23  2.500                                                     
     3   .000      7   .000                                                     
  local pseudopotential read in
  partial core-charges read in
  atomic valenz-charges read in
  non local Contribution for L=           1  read in
    real space projection operators read in
  non local Contribution for L=           1  read in
    real space projection operators read in
  non local Contribution for L=           2  read in
    real space projection operators read in
  non local Contribution for L=           2  read in
    real space projection operators read in
  non local Contribution for L=           0  read in
    real space projection operators read in
  non local Contribution for L=           0  read in
    real space projection operators read in
    PAW grid and wavefunctions read in
 
   number of l-projection  operators is LMAX  =           6
   number of lm-projection operators is LMMAX =          18
 

 ----------------------------------------------------------------------------- 
|                                                                             |
|  ADVICE TO THIS USER RUNNING 'VASP/VAMP'   (HEAR YOUR MASTER'S VOICE ...):  |
|                                                                             |
|      You have a (more or less) 'large supercell' and for larger cells       |
|      it might be more efficient to use real space projection operators      |
|      So try LREAL= Auto  in the INCAR   file.                               |
|      Mind: If you want to do an extremely accurate calculations keep the    |
|      reciprocal projection scheme          (i.e. LREAL=.FALSE.)             |
|                                                                             |
 ----------------------------------------------------------------------------- 

 PAW_PBE Ti_pv 07Sep2000                :
 energy of atom  1       EATOM=-1042.3781
 kinetic energy error for atom=    0.0024 (will be added to EATOM!!)
 
 EXHCAR: internal setup
 exchange correlation table for  LEXCH =        8
   RHO(1)=    0.500       N(1)  =     2000
   RHO(2)=  100.500       N(2)  =     4000
 
 POSCAR: Ti                                      
  positions in direct lattice
  No initial velocities read in
 


--------------------------------------------------------------------------------------------------------


 ion  position               nearest neighbor table
   1  0.112  0.223  0.126-  22 2.87  19 2.87  21 2.88  31 2.88  28 2.89  30 2.89   2 2.93   7 2.94
                             4 2.94   3 2.95   5 2.95   9 2.96
   2  0.444  0.223  0.125-  19 2.88  28 2.88  23 2.88  32 2.88  29 2.88  20 2.88   1 2.93   3 2.94
                             8 2.94   5 2.94   7 2.95   6 2.95
   3  0.777  0.223  0.125-  20 2.88  29 2.88  24 2.88  33 2.88  30 2.88  21 2.88   2 2.94   9 2.94
                             6 2.94   1 2.95   8 2.95   4 2.95
   4  0.111  0.556  0.125-  24 2.88  33 2.88  25 2.88  34 2.88  22 2.88  31 2.88   6 2.94   5 2.94
                             7 2.94   1 2.94   3 2.95   8 2.95
   5  0.444  0.556  0.125-  22 2.88  31 2.88  26 2.88  35 2.88  32 2.88  23 2.88   4 2.94   6 2.94
                             2 2.94   8 2.94   1 2.95   9 2.95
   6  0.777  0.556  0.125-  23 2.88  32 2.88  27 2.88  36 2.88  33 2.88  24 2.88   4 2.94   5 2.94
                             3 2.94   9 2.94   7 2.95   2 2.95
   7  0.111  0.889  0.125-  27 2.88  36 2.88  28 2.88  19 2.88  34 2.88  25 2.88   1 2.94   9 2.94
                             8 2.94   4 2.94   2 2.95   6 2.95
   8  0.444  0.889  0.125-  25 2.88  34 2.88  29 2.88  20 2.88  26 2.88  35 2.88   7 2.94   9 2.94
                             2 2.94   5 2.94   3 2.95   4 2.95
   9  0.777  0.889  0.125-  26 2.88  35 2.88  30 2.88  21 2.88  27 2.88  36 2.88   7 2.94   8 2.94
                             3 2.94   6 2.94   5 2.95   1 2.96
  10  0.111  0.223  0.625-  21 2.88  30 2.88  22 2.88  31 2.88  19 2.88  28 2.88  12 2.94  11 2.94
                            16 2.94  13 2.94  18 2.95  14 2.95
  11  0.444  0.223  0.625-  19 2.88  28 2.88  23 2.88  32 2.88  29 2.88  20 2.88  10 2.94  12 2.94
                            17 2.94  14 2.94  16 2.95  15 2.95
  12  0.777  0.223  0.625-  20 2.88  29 2.88  24 2.88  33 2.88  30 2.88  21 2.88  10 2.94  11 2.94
                            18 2.94  15 2.94  17 2.95  13 2.95
  13  0.111  0.556  0.625-  24 2.88  33 2.88  25 2.88  34 2.88  22 2.88  31 2.88  15 2.94  14 2.94
                            10 2.94  16 2.94  12 2.95  17 2.95
  14  0.444  0.556  0.625-  22 2.88  31 2.88  26 2.88  35 2.88  32 2.88  23 2.88  13 2.94  15 2.94
                            11 2.94  17 2.94  10 2.95  18 2.95
  15  0.777  0.556  0.625-  23 2.88  32 2.88  27 2.88  36 2.88  33 2.88  24 2.88  13 2.94  14 2.94
                            12 2.94  18 2.94  16 2.95  11 2.95
  16  0.111  0.889  0.625-  27 2.88  36 2.88  28 2.88  19 2.88  34 2.88  25 2.88  18 2.94  17 2.94
                            10 2.94  13 2.94  11 2.95  15 2.95
  17  0.444  0.889  0.625-  25 2.88  34 2.88  29 2.88  20 2.88  26 2.88  35 2.88  16 2.94  18 2.94
                            11 2.94  14 2.94  12 2.95  13 2.95
  18  0.777  0.889  0.625-  26 2.88  35 2.88  30 2.88  21 2.88  27 2.88  36 2.88  16 2.94  17 2.94
                            12 2.94  15 2.94  10 2.95  14 2.95
  19  0.223  0.111  0.375-   1 2.87   2 2.88  11 2.88   7 2.88  16 2.88  10 2.88  21 2.94  20 2.94
                            25 2.94  22 2.94  27 2.95  23 2.95
  20  0.556  0.111  0.375-   3 2.88  12 2.88   8 2.88  17 2.88   2 2.88  11 2.88  19 2.94  21 2.94
                            26 2.94  23 2.94  25 2.95  24 2.95
  21  0.889  0.111  0.375-   1 2.88  10 2.88   9 2.88  18 2.88  12 2.88   3 2.88  19 2.94  20 2.94
                            27 2.94  24 2.94  26 2.95  22 2.95
  22  0.223  0.444  0.375-   1 2.87   5 2.88  14 2.88  10 2.88  13 2.88   4 2.88  24 2.94  23 2.94
                            19 2.94  25 2.94  21 2.95  26 2.95
  23  0.556  0.444  0.375-   6 2.88  15 2.88  11 2.88   2 2.88  14 2.88   5 2.88  22 2.94  24 2.94
                            20 2.94  26 2.94  19 2.95  27 2.95
  24  0.889  0.444  0.375-   4 2.88  13 2.88  12 2.88   3 2.88   6 2.88  15 2.88  22 2.94  23 2.94
                            21 2.94  27 2.94  25 2.95  20 2.95
  25  0.223  0.777  0.375-   8 2.88  17 2.88  13 2.88   4 2.88  16 2.88   7 2.88  27 2.94  26 2.94
                            19 2.94  22 2.94  20 2.95  24 2.95
  26  0.556  0.777  0.375-   9 2.88  18 2.88  14 2.88   5 2.88  17 2.88   8 2.88  25 2.94  27 2.94
                            20 2.94  23 2.94  21 2.95  22 2.95
  27  0.889  0.777  0.375-   7 2.88  16 2.88  15 2.88   6 2.88   9 2.88  18 2.88  25 2.94  26 2.94
                            21 2.94  24 2.94  19 2.95  23 2.95
  28  0.223  0.111  0.875-   2 2.88  11 2.88   7 2.88  16 2.88  10 2.88   1 2.89  30 2.94  29 2.94
                            34 2.94  31 2.94  36 2.95  32 2.95
  29  0.556  0.111  0.875-   3 2.88  12 2.88   8 2.88  17 2.88   2 2.88  11 2.88  28 2.94  30 2.94
                            35 2.94  32 2.94  34 2.95  33 2.95
  30  0.889  0.111  0.875-  10 2.88   9 2.88  18 2.88  12 2.88   3 2.88   1 2.89  28 2.94  29 2.94
                            36 2.94  33 2.94  35 2.95  31 2.95
  31  0.223  0.444  0.875-   5 2.88  14 2.88  10 2.88  13 2.88   4 2.88   1 2.88  33 2.94  32 2.94
                            28 2.94  34 2.94  30 2.95  35 2.95
  32  0.556  0.444  0.875-   6 2.88  15 2.88  11 2.88   2 2.88  14 2.88   5 2.88  31 2.94  33 2.94
                            29 2.94  35 2.94  28 2.95  36 2.95
  33  0.889  0.444  0.875-   4 2.88  13 2.88  12 2.88   3 2.88   6 2.88  15 2.88  31 2.94  32 2.94
                            30 2.94  36 2.94  34 2.95  29 2.95
  34  0.223  0.777  0.875-   8 2.88  17 2.88  13 2.88   4 2.88  16 2.88   7 2.88  36 2.94  35 2.94
                            28 2.94  31 2.94  29 2.95  33 2.95
  35  0.556  0.777  0.875-   9 2.88  18 2.88  14 2.88   5 2.88  17 2.88   8 2.88  34 2.94  36 2.94
                            29 2.94  32 2.94  30 2.95  31 2.95
  36  0.889  0.777  0.875-   7 2.88  16 2.88  15 2.88   6 2.88   9 2.88  18 2.88  34 2.94  35 2.94
                            30 2.94  33 2.94  28 2.95  32 2.95
 
  LATTYP: Found a base centered orthorhombic cell.
 ALAT       =     8.8635622795
 B/A-ratio  =     1.7208744689
 C/A-ratio  =     1.0491886802
  
  Lattice vectors:
  
 A1 = (   8.8206670999,   0.0247654402,   0.0000000000)
 A2 = (  -4.3888858705,   7.6513046101,   0.0000000000)
 A3 = (   0.0000000000,   0.0000000000,   9.2995492100)
 Subroutine PRICEL returns:
 Original cell was already a primitive cell.
 

Analysis of symmetry for initial positions (statically):

 Routine SETGRP: Setting up the symmetry group for a 
 base centered orthorhombic supercell.


 Subroutine GETGRP returns: Found  1 space group operations
 (whereof  1 operations were pure point group operations)
 out of a pool of  8 trial point group operations.


The static configuration has the point symmetry C_1 .

Analysis of symmetry for dynamics (positions and initial velocities):

 Subroutine DYNSYM returns: Found  1 space group operations
 (whereof  1 operations were pure point group operations)
 out of a pool of  1 trial space group operations
 (whereof  1 operations were pure point group operations)
 and found also     1 'primitive' translations


The dynamic configuration has the point symmetry C_1 .
 
 
 KPOINTS: Automatic mesh                          

Automatic generation of k-mesh.
 generate k-points for:   7   7   5
 
 Subroutine IBZKPT returns following result:
 ===========================================
 
 Found    123 irreducible k-points:
 
 Following reciprocal coordinates:
            Coordinates               Weight
  0.000000  0.000000  0.000000      1.000000
  0.142857 -0.000000  0.000000      2.000000
  0.285714  0.000000  0.000000      2.000000
  0.428571 -0.000000  0.000000      2.000000
  0.000000  0.142857  0.000000      2.000000
  0.142857  0.142857  0.000000      2.000000
  0.285714  0.142857  0.000000      2.000000
  0.428571  0.142857  0.000000      2.000000
 -0.428571  0.142857  0.000000      2.000000
 -0.285714  0.142857  0.000000      2.000000
 -0.142857  0.142857  0.000000      2.000000
  0.000000  0.285714  0.000000      2.000000
  0.142857  0.285714  0.000000      2.000000
  0.285714  0.285714  0.000000      2.000000
  0.428571  0.285714  0.000000      2.000000
 -0.428571  0.285714  0.000000      2.000000
 -0.285714  0.285714  0.000000      2.000000
 -0.142857  0.285714  0.000000      2.000000
  0.000000  0.428571  0.000000      2.000000
  0.142857  0.428571  0.000000      2.000000
  0.285714  0.428571  0.000000      2.000000
  0.428571  0.428571  0.000000      2.000000
 -0.428571  0.428571  0.000000      2.000000
 -0.285714  0.428571  0.000000      2.000000
 -0.142857  0.428571  0.000000      2.000000
  0.000000  0.000000  0.200000      2.000000
  0.142857 -0.000000  0.200000      2.000000
  0.285714  0.000000  0.200000      2.000000
  0.428571 -0.000000  0.200000      2.000000
 -0.428571  0.000000  0.200000      2.000000
 -0.285714  0.000000  0.200000      2.000000
 -0.142857  0.000000  0.200000      2.000000
  0.000000  0.142857  0.200000      2.000000
  0.142857  0.142857  0.200000      2.000000
  0.285714  0.142857  0.200000      2.000000
  0.428571  0.142857  0.200000      2.000000
 -0.428571  0.142857  0.200000      2.000000
 -0.285714  0.142857  0.200000      2.000000
 -0.142857  0.142857  0.200000      2.000000
  0.000000  0.285714  0.200000      2.000000
  0.142857  0.285714  0.200000      2.000000
  0.285714  0.285714  0.200000      2.000000
  0.428571  0.285714  0.200000      2.000000
 -0.428571  0.285714  0.200000      2.000000
 -0.285714  0.285714  0.200000      2.000000
 -0.142857  0.285714  0.200000      2.000000
  0.000000  0.428571  0.200000      2.000000
  0.142857  0.428571  0.200000      2.000000
  0.285714  0.428571  0.200000      2.000000
  0.428571  0.428571  0.200000      2.000000
 -0.428571  0.428571  0.200000      2.000000
 -0.285714  0.428571  0.200000      2.000000
 -0.142857  0.428571  0.200000      2.000000
  0.000000 -0.428571  0.200000      2.000000
  0.142857 -0.428571  0.200000      2.000000
  0.285714 -0.428571  0.200000      2.000000
  0.428571 -0.428571  0.200000      2.000000
 -0.428571 -0.428571  0.200000      2.000000
 -0.285714 -0.428571  0.200000      2.000000
 -0.142857 -0.428571  0.200000      2.000000
 -0.000000 -0.285714  0.200000      2.000000
  0.142857 -0.285714  0.200000      2.000000
  0.285714 -0.285714  0.200000      2.000000
  0.428571 -0.285714  0.200000      2.000000
 -0.428571 -0.285714  0.200000      2.000000
 -0.285714 -0.285714  0.200000      2.000000
 -0.142857 -0.285714  0.200000      2.000000
  0.000000 -0.142857  0.200000      2.000000
  0.142857 -0.142857  0.200000      2.000000
  0.285714 -0.142857  0.200000      2.000000
  0.428571 -0.142857  0.200000      2.000000
 -0.428571 -0.142857  0.200000      2.000000
 -0.285714 -0.142857  0.200000      2.000000
 -0.142857 -0.142857  0.200000      2.000000
  0.000000  0.000000  0.400000      2.000000
  0.142857 -0.000000  0.400000      2.000000
  0.285714  0.000000  0.400000      2.000000
  0.428571 -0.000000  0.400000      2.000000
 -0.428571  0.000000  0.400000      2.000000
 -0.285714  0.000000  0.400000      2.000000
 -0.142857  0.000000  0.400000      2.000000
  0.000000  0.142857  0.400000      2.000000
  0.142857  0.142857  0.400000      2.000000
  0.285714  0.142857  0.400000      2.000000
  0.428571  0.142857  0.400000      2.000000
 -0.428571  0.142857  0.400000      2.000000
 -0.285714  0.142857  0.400000      2.000000
 -0.142857  0.142857  0.400000      2.000000
  0.000000  0.285714  0.400000      2.000000
  0.142857  0.285714  0.400000      2.000000
  0.285714  0.285714  0.400000      2.000000
  0.428571  0.285714  0.400000      2.000000
 -0.428571  0.285714  0.400000      2.000000
 -0.285714  0.285714  0.400000      2.000000
 -0.142857  0.285714  0.400000      2.000000
  0.000000  0.428571  0.400000      2.000000
  0.142857  0.428571  0.400000      2.000000
  0.285714  0.428571  0.400000      2.000000
  0.428571  0.428571  0.400000      2.000000
 -0.428571  0.428571  0.400000      2.000000
 -0.285714  0.428571  0.400000      2.000000
 -0.142857  0.428571  0.400000      2.000000
  0.000000 -0.428571  0.400000      2.000000
  0.142857 -0.428571  0.400000      2.000000
  0.285714 -0.428571  0.400000      2.000000
  0.428571 -0.428571  0.400000      2.000000
 -0.428571 -0.428571  0.400000      2.000000
 -0.285714 -0.428571  0.400000      2.000000
 -0.142857 -0.428571  0.400000      2.000000
 -0.000000 -0.285714  0.400000      2.000000
  0.142857 -0.285714  0.400000      2.000000
  0.285714 -0.285714  0.400000      2.000000
  0.428571 -0.285714  0.400000      2.000000
 -0.428571 -0.285714  0.400000      2.000000
 -0.285714 -0.285714  0.400000      2.000000
 -0.142857 -0.285714  0.400000      2.000000
  0.000000 -0.142857  0.400000      2.000000
  0.142857 -0.142857  0.400000      2.000000
  0.285714 -0.142857  0.400000      2.000000
  0.428571 -0.142857  0.400000      2.000000
 -0.428571 -0.142857  0.400000      2.000000
 -0.285714 -0.142857  0.400000      2.000000
 -0.142857 -0.142857  0.400000      2.000000
 
 Following cartesian coordinates:
            Coordinates               Weight
  0.000000  0.000000  0.000000      1.000000
  0.016170  0.009275  0.000000      2.000000
  0.032339  0.018550  0.000000      2.000000
  0.048509  0.027825  0.000000      2.000000
 -0.000052  0.018641  0.000000      2.000000
  0.016117  0.027916  0.000000      2.000000
  0.032287  0.037191  0.000000      2.000000
  0.048457  0.046466  0.000000      2.000000
 -0.048561 -0.009184  0.000000      2.000000
 -0.032392  0.000091  0.000000      2.000000
 -0.016222  0.009366  0.000000      2.000000
 -0.000105  0.037282  0.000000      2.000000
  0.016065  0.046557  0.000000      2.000000
  0.032235  0.055832  0.000000      2.000000
  0.048404  0.065107  0.000000      2.000000
 -0.048614  0.009456  0.000000      2.000000
 -0.032444  0.018732  0.000000      2.000000
 -0.016274  0.028007  0.000000      2.000000
 -0.000157  0.055923  0.000000      2.000000
  0.016013  0.065198  0.000000      2.000000
  0.032182  0.074473  0.000000      2.000000
  0.048352  0.083748  0.000000      2.000000
 -0.048666  0.028097  0.000000      2.000000
 -0.032496  0.037373  0.000000      2.000000
 -0.016327  0.046648  0.000000      2.000000
  0.000000  0.000000  0.021506      2.000000
  0.016170  0.009275  0.021506      2.000000
  0.032339  0.018550  0.021506      2.000000
  0.048509  0.027825  0.021506      2.000000
 -0.048509 -0.027825  0.021506      2.000000
 -0.032339 -0.018550  0.021506      2.000000
 -0.016170 -0.009275  0.021506      2.000000
 -0.000052  0.018641  0.021506      2.000000
  0.016117  0.027916  0.021506      2.000000
  0.032287  0.037191  0.021506      2.000000
  0.048457  0.046466  0.021506      2.000000
 -0.048561 -0.009184  0.021506      2.000000
 -0.032392  0.000091  0.021506      2.000000
 -0.016222  0.009366  0.021506      2.000000
 -0.000105  0.037282  0.021506      2.000000
  0.016065  0.046557  0.021506      2.000000
  0.032235  0.055832  0.021506      2.000000
  0.048404  0.065107  0.021506      2.000000
 -0.048614  0.009456  0.021506      2.000000
 -0.032444  0.018732  0.021506      2.000000
 -0.016274  0.028007  0.021506      2.000000
 -0.000157  0.055923  0.021506      2.000000
  0.016013  0.065198  0.021506      2.000000
  0.032182  0.074473  0.021506      2.000000
  0.048352  0.083748  0.021506      2.000000
 -0.048666  0.028097  0.021506      2.000000
 -0.032496  0.037373  0.021506      2.000000
 -0.016327  0.046648  0.021506      2.000000
  0.000157 -0.055923  0.021506      2.000000
  0.016327 -0.046648  0.021506      2.000000
  0.032496 -0.037373  0.021506      2.000000
  0.048666 -0.028097  0.021506      2.000000
 -0.048352 -0.083748  0.021506      2.000000
 -0.032182 -0.074473  0.021506      2.000000
 -0.016013 -0.065198  0.021506      2.000000
  0.000105 -0.037282  0.021506      2.000000
  0.016274 -0.028007  0.021506      2.000000
  0.032444 -0.018732  0.021506      2.000000
  0.048614 -0.009456  0.021506      2.000000
 -0.048404 -0.065107  0.021506      2.000000
 -0.032235 -0.055832  0.021506      2.000000
 -0.016065 -0.046557  0.021506      2.000000
  0.000052 -0.018641  0.021506      2.000000
  0.016222 -0.009366  0.021506      2.000000
  0.032392 -0.000091  0.021506      2.000000
  0.048561  0.009184  0.021506      2.000000
 -0.048457 -0.046466  0.021506      2.000000
 -0.032287 -0.037191  0.021506      2.000000
 -0.016117 -0.027916  0.021506      2.000000
  0.000000  0.000000  0.043013      2.000000
  0.016170  0.009275  0.043013      2.000000
  0.032339  0.018550  0.043013      2.000000
  0.048509  0.027825  0.043013      2.000000
 -0.048509 -0.027825  0.043013      2.000000
 -0.032339 -0.018550  0.043013      2.000000
 -0.016170 -0.009275  0.043013      2.000000
 -0.000052  0.018641  0.043013      2.000000
  0.016117  0.027916  0.043013      2.000000
  0.032287  0.037191  0.043013      2.000000
  0.048457  0.046466  0.043013      2.000000
 -0.048561 -0.009184  0.043013      2.000000
 -0.032392  0.000091  0.043013      2.000000
 -0.016222  0.009366  0.043013      2.000000
 -0.000105  0.037282  0.043013      2.000000
  0.016065  0.046557  0.043013      2.000000
  0.032235  0.055832  0.043013      2.000000
  0.048404  0.065107  0.043013      2.000000
 -0.048614  0.009456  0.043013      2.000000
 -0.032444  0.018732  0.043013      2.000000
 -0.016274  0.028007  0.043013      2.000000
 -0.000157  0.055923  0.043013      2.000000
  0.016013  0.065198  0.043013      2.000000
  0.032182  0.074473  0.043013      2.000000
  0.048352  0.083748  0.043013      2.000000
 -0.048666  0.028097  0.043013      2.000000
 -0.032496  0.037373  0.043013      2.000000
 -0.016327  0.046648  0.043013      2.000000
  0.000157 -0.055923  0.043013      2.000000
  0.016327 -0.046648  0.043013      2.000000
  0.032496 -0.037373  0.043013      2.000000
  0.048666 -0.028097  0.043013      2.000000
 -0.048352 -0.083748  0.043013      2.000000
 -0.032182 -0.074473  0.043013      2.000000
 -0.016013 -0.065198  0.043013      2.000000
  0.000105 -0.037282  0.043013      2.000000
  0.016274 -0.028007  0.043013      2.000000
  0.032444 -0.018732  0.043013      2.000000
  0.048614 -0.009456  0.043013      2.000000
 -0.048404 -0.065107  0.043013      2.000000
 -0.032235 -0.055832  0.043013      2.000000
 -0.016065 -0.046557  0.043013      2.000000
  0.000052 -0.018641  0.043013      2.000000
  0.016222 -0.009366  0.043013      2.000000
  0.032392 -0.000091  0.043013      2.000000
  0.048561  0.009184  0.043013      2.000000
 -0.048457 -0.046466  0.043013      2.000000
 -0.032287 -0.037191  0.043013      2.000000
 -0.016117 -0.027916  0.043013      2.000000
 


--------------------------------------------------------------------------------------------------------




 Dimension of arrays:
   k-Points           NKPTS =    123   number of bands    NBANDS=    216
   number of dos      NEDOS =    301   number of ions     NIONS =     36
   non local maximal  LDIM  =      6   non local SUM 2l+1 LMDIM =     18
   total plane-waves  NPLWV = 286720
   max r-space proj   IRMAX =      1   max aug-charges    IRDMAX=  17905
   dimension x,y,z NGX =    64 NGY =   64 NGZ =   70
   dimension x,y,z NGXF=   128 NGYF=  128 NGZF=  140
   support grid    NGXF=   128 NGYF=  128 NGZF=  140
   ions per type =              36
 NGX,Y,Z   is equivalent  to a cutoff of  12.06, 12.06, 12.51 a.u.
 NGXF,Y,Z  is equivalent  to a cutoff of  24.12, 24.12, 25.03 a.u.


 I would recommend the setting:
   dimension x,y,z NGX =    64 NGY =   64 NGZ =   68
 SYSTEM =  unknown system                          
 POSCAR =  Ti                                      

 Startparameter for this run:
   NWRITE =      2    write-flag & timer
   PREC   = accura    medium, high low
   ISTART =      0    job   : 0-new  1-cont  2-samecut
   ICHARG =      2    charge: 1-file 2-atom 10-const
   ISPIN  =      1    spin polarized calculation?
   LNONCOLLINEAR =      F non collinear calculations
   LSORBIT =      F    spin-orbit coupling
   INIWAV =      1    electr: 0-lowe 1-rand  2-diag
   LASPH  =      F    aspherical Exc in radial PAW
   METAGGA=      F    non-selfconsistent MetaGGA calc.

 Electronic Relaxation 1
   ENCUT  =  500.0 eV  36.75 Ry    6.06 a.u.  16.08 16.08 16.96*2*pi/ulx,y,z
   ENINI  =  500.0     initial cutoff
   ENAUG  =  482.8 eV  augmentation charge cutoff
   NELM   =     60;   NELMIN=  2; NELMDL=  0     # of ELM steps 
   EDIFF  = 0.1E-07   stopping-criterion for ELM
   LREAL  =      F    real-space projection
   LCOMPAT=      F    compatible to vasp.4.4
   LREAL_COMPAT= F    compatible to vasp.4.5.1-3
   GGA_COMPAT  = T    GGA compatible to vasp.4.4-vasp.4.6
   LMAXPAW     = -100 max onsite density
   LMAXMIX     =    2 max onsite mixed and CHGCAR
   VOSKOWN=      0    Vosko Wilk Nusair interpolation
   ROPT   =    0.00000
 Ionic relaxation
   EDIFFG = 0.1E-06   stopping-criterion for IOM
   NSW    =      0    number of steps for IOM
   NBLOCK =      1;   KBLOCK =      1    inner block; outer block 
   IBRION =     -1    ionic relax: 0-MD 1-quasi-New 2-CG
   NFREE  =      0    steps in history (QN), initial steepest desc. (CG)
   ISIF   =      2    stress and relaxation
   IWAVPR =     10    prediction:  0-non 1-charg 2-wave 3-comb
   ISYM   =      2    0-nonsym 1-usesym 2-fastsym
   LCORR  =      T    Harris-Foulkes like correction to forces

   POTIM  =   0.50    time-step for ionic-motion
   TEIN   =    0.0    initial temperature
   TEBEG  =    0.0;   TEEND  =   0.0 temperature during run
   SMASS  =  -3.00    Nose mass-parameter (am)
   estimated Nose-frequenzy (Omega)   =  0.10E-29 period in steps =****** mass=  -0.178E-26a.u.
   NPACO  =    256;   APACO  = 16.0  distance and # of slots for P.C.
   PSTRESS=    0.0 pullay stress

  Mass of Ions in am
   POMASS =  47.88
  Ionic Valenz
   ZVAL   =  10.00
  Atomic Wigner-Seitz radii
   RWIGS  =  -1.00
   NELECT =     360.0000    total number of electrons
   NUPDOWN=      -1.0000    fix difference up-down

 DOS related values:
   EMIN   =  10.00;   EMAX   =-10.00  energy-range for DOS
   ISMEAR =     0;   SIGMA  =   0.01  broadening in eV -4-tet -1-fermi 0-gaus

 Electronic relaxation 2 (details)
   IALGO  =     38    algorithm
   LDIAG  =      T    sub-space diagonalisation
   IMIX   =      4    mixing-type and parameters
     AMIX     =   0.40;   BMIX     =  1.00
     AMIX_MAG =   1.60;   BMIX_MAG =  1.00
     AMIN     =   0.10
     WC   =   100.;   INIMIX=   1;  MIXPRE=   1

 Intra band minimization:
   WEIMIN = 0.0000     energy-eigenvalue tresh-hold
   EBREAK =  0.12E-10  absolut break condition
   DEPER  =   0.30     relativ break condition  

   TIME   =   0.10     timestep for ELM

  volume/ion in A,a.u.               =      17.46       117.84
  Fermi-wavevector in a.u.,eV,Ry     =   1.359491 25.146513  1.848217

 Second variation
   LSECVAR=     F    do a second variation
 
 Write flags
   LWAVE  =      F    write WAVECAR
   LCHARG =      F    write CHGCAR
   LVTOT  =      F    write LOCPOT, local potential
   LELF   =      F    write electronic localiz. function (ELF)
   LORBIT =      0    0 simple, 1 ext, 2 COOP (PROOUT)


 Dipole corrections
   IDIPOL =      0    1-x, 2-y, 3-z
   LDIPOL =      F    correct potential



--------------------------------------------------------------------------------------------------------


 Static calculation
 charge density will be updated during run
 non-spin polarized calculation
 Variant of blocked Davidson
 Davidson routine will perform the subspace rotation
 performe sub-space diagonalisation
    after iterative eigenvector-optimisation
 modified Broyden-mixing scheme, WC =      100.0
 initial mixing is a Kerker type mixing with AMIX =  0.4000 and BMIX =      1.0000
 Hartree-type preconditioning will be used
 using additional bands           36
 reciprocal scheme for non local part
 use partial core corrections
 calculate Harris-corrections to forces 
   (improved forces if not selfconsistent)
 use gradient corrections 
 use of overlap-Matrix (Vanderbilt PP)
 Gauss-broadening in eV      SIGMA  =   0.01


--------------------------------------------------------------------------------------------------------


  energy-cutoff  :      500.00
  volume of cell :      628.63
      direct lattice vectors                 reciprocal lattice vectors
     8.820667100  0.024765440  0.000000000     0.113187820  0.064925977  0.000000000
    -4.388885871  7.651304610  0.000000000    -0.000366362  0.130486516  0.000000000
     0.000000000  0.000000000  9.299549210     0.000000000  0.000000000  0.107532094

  length of vectors
     8.820701866  8.820701867  9.299549210     0.130487030  0.130487030  0.107532094


 
 k-points in units of 2pi/SCALE and weight: Automatic mesh                          
   0.00000000  0.00000000  0.00000000       0.004
   0.01616969  0.00927514  0.00000000       0.008
   0.03233938  0.01855028  0.00000000       0.008
   0.04850907  0.02782542  0.00000000       0.008
  -0.00005234  0.01864093  0.00000000       0.008
   0.01611735  0.02791607  0.00000000       0.008
   0.03228704  0.03719121  0.00000000       0.008
   0.04845673  0.04646635  0.00000000       0.008
  -0.04856140 -0.00918449  0.00000000       0.008
  -0.03239171  0.00009065  0.00000000       0.008
  -0.01622203  0.00936579  0.00000000       0.008
  -0.00010467  0.03728186  0.00000000       0.008
   0.01606501  0.04655700  0.00000000       0.008
   0.03223470  0.05583214  0.00000000       0.008
   0.04840439  0.06510728  0.00000000       0.008
  -0.04861374  0.00945644  0.00000000       0.008
  -0.03244405  0.01873158  0.00000000       0.008
  -0.01627436  0.02800672  0.00000000       0.008
  -0.00015701  0.05592279  0.00000000       0.008
   0.01601268  0.06519793  0.00000000       0.008
   0.03218236  0.07447307  0.00000000       0.008
   0.04835205  0.08374821  0.00000000       0.008
  -0.04866608  0.02809737  0.00000000       0.008
  -0.03249639  0.03737251  0.00000000       0.008
  -0.01632670  0.04664765  0.00000000       0.008
   0.00000000  0.00000000  0.02150642       0.008
   0.01616969  0.00927514  0.02150642       0.008
   0.03233938  0.01855028  0.02150642       0.008
   0.04850907  0.02782542  0.02150642       0.008
  -0.04850907 -0.02782542  0.02150642       0.008
  -0.03233938 -0.01855028  0.02150642       0.008
  -0.01616969 -0.00927514  0.02150642       0.008
  -0.00005234  0.01864093  0.02150642       0.008
   0.01611735  0.02791607  0.02150642       0.008
   0.03228704  0.03719121  0.02150642       0.008
   0.04845673  0.04646635  0.02150642       0.008
  -0.04856140 -0.00918449  0.02150642       0.008
  -0.03239171  0.00009065  0.02150642       0.008
  -0.01622203  0.00936579  0.02150642       0.008
  -0.00010467  0.03728186  0.02150642       0.008
   0.01606501  0.04655700  0.02150642       0.008
   0.03223470  0.05583214  0.02150642       0.008
   0.04840439  0.06510728  0.02150642       0.008
  -0.04861374  0.00945644  0.02150642       0.008
  -0.03244405  0.01873158  0.02150642       0.008
  -0.01627436  0.02800672  0.02150642       0.008
  -0.00015701  0.05592279  0.02150642       0.008
   0.01601268  0.06519793  0.02150642       0.008
   0.03218236  0.07447307  0.02150642       0.008
   0.04835205  0.08374821  0.02150642       0.008
  -0.04866608  0.02809737  0.02150642       0.008
  -0.03249639  0.03737251  0.02150642       0.008
  -0.01632670  0.04664765  0.02150642       0.008
   0.00015701 -0.05592279  0.02150642       0.008
   0.01632670 -0.04664765  0.02150642       0.008
   0.03249639 -0.03737251  0.02150642       0.008
   0.04866608 -0.02809737  0.02150642       0.008
  -0.04835205 -0.08374821  0.02150642       0.008
  -0.03218236 -0.07447307  0.02150642       0.008
  -0.01601268 -0.06519793  0.02150642       0.008
   0.00010467 -0.03728186  0.02150642       0.008
   0.01627436 -0.02800672  0.02150642       0.008
   0.03244405 -0.01873158  0.02150642       0.008
   0.04861374 -0.00945644  0.02150642       0.008
  -0.04840439 -0.06510728  0.02150642       0.008
  -0.03223470 -0.05583214  0.02150642       0.008
  -0.01606501 -0.04655700  0.02150642       0.008
   0.00005234 -0.01864093  0.02150642       0.008
   0.01622203 -0.00936579  0.02150642       0.008
   0.03239171 -0.00009065  0.02150642       0.008
   0.04856140  0.00918449  0.02150642       0.008
  -0.04845673 -0.04646635  0.02150642       0.008
  -0.03228704 -0.03719121  0.02150642       0.008
  -0.01611735 -0.02791607  0.02150642       0.008
   0.00000000  0.00000000  0.04301284       0.008
   0.01616969  0.00927514  0.04301284       0.008
   0.03233938  0.01855028  0.04301284       0.008
   0.04850907  0.02782542  0.04301284       0.008
  -0.04850907 -0.02782542  0.04301284       0.008
  -0.03233938 -0.01855028  0.04301284       0.008
  -0.01616969 -0.00927514  0.04301284       0.008
  -0.00005234  0.01864093  0.04301284       0.008
   0.01611735  0.02791607  0.04301284       0.008
   0.03228704  0.03719121  0.04301284       0.008
   0.04845673  0.04646635  0.04301284       0.008
  -0.04856140 -0.00918449  0.04301284       0.008
  -0.03239171  0.00009065  0.04301284       0.008
  -0.01622203  0.00936579  0.04301284       0.008
  -0.00010467  0.03728186  0.04301284       0.008
   0.01606501  0.04655700  0.04301284       0.008
   0.03223470  0.05583214  0.04301284       0.008
   0.04840439  0.06510728  0.04301284       0.008
  -0.04861374  0.00945644  0.04301284       0.008
  -0.03244405  0.01873158  0.04301284       0.008
  -0.01627436  0.02800672  0.04301284       0.008
  -0.00015701  0.05592279  0.04301284       0.008
   0.01601268  0.06519793  0.04301284       0.008
   0.03218236  0.07447307  0.04301284       0.008
   0.04835205  0.08374821  0.04301284       0.008
  -0.04866608  0.02809737  0.04301284       0.008
  -0.03249639  0.03737251  0.04301284       0.008
  -0.01632670  0.04664765  0.04301284       0.008
   0.00015701 -0.05592279  0.04301284       0.008
   0.01632670 -0.04664765  0.04301284       0.008
   0.03249639 -0.03737251  0.04301284       0.008
   0.04866608 -0.02809737  0.04301284       0.008
  -0.04835205 -0.08374821  0.04301284       0.008
  -0.03218236 -0.07447307  0.04301284       0.008
  -0.01601268 -0.06519793  0.04301284       0.008
   0.00010467 -0.03728186  0.04301284       0.008
   0.01627436 -0.02800672  0.04301284       0.008
   0.03244405 -0.01873158  0.04301284       0.008
   0.04861374 -0.00945644  0.04301284       0.008
  -0.04840439 -0.06510728  0.04301284       0.008
  -0.03223470 -0.05583214  0.04301284       0.008
  -0.01606501 -0.04655700  0.04301284       0.008
   0.00005234 -0.01864093  0.04301284       0.008
   0.01622203 -0.00936579  0.04301284       0.008
   0.03239171 -0.00009065  0.04301284       0.008
   0.04856140  0.00918449  0.04301284       0.008
  -0.04845673 -0.04646635  0.04301284       0.008
  -0.03228704 -0.03719121  0.04301284       0.008
  -0.01611735 -0.02791607  0.04301284       0.008
 
 k-points in reciprocal lattice and weights: Automatic mesh                          
   0.00000000  0.00000000  0.00000000       0.004
   0.14285714 -0.00000000  0.00000000       0.008
   0.28571429  0.00000000  0.00000000       0.008
   0.42857143 -0.00000000  0.00000000       0.008
   0.00000000  0.14285714  0.00000000       0.008
   0.14285714  0.14285714  0.00000000       0.008
   0.28571429  0.14285714  0.00000000       0.008
   0.42857143  0.14285714  0.00000000       0.008
  -0.42857143  0.14285714  0.00000000       0.008
  -0.28571429  0.14285714  0.00000000       0.008
  -0.14285714  0.14285714  0.00000000       0.008
   0.00000000  0.28571429  0.00000000       0.008
   0.14285714  0.28571429  0.00000000       0.008
   0.28571429  0.28571429  0.00000000       0.008
   0.42857143  0.28571429  0.00000000       0.008
  -0.42857143  0.28571429  0.00000000       0.008
  -0.28571429  0.28571429  0.00000000       0.008
  -0.14285714  0.28571429  0.00000000       0.008
   0.00000000  0.42857143  0.00000000       0.008
   0.14285714  0.42857143  0.00000000       0.008
   0.28571429  0.42857143  0.00000000       0.008
   0.42857143  0.42857143  0.00000000       0.008
  -0.42857143  0.42857143  0.00000000       0.008
  -0.28571429  0.42857143  0.00000000       0.008
  -0.14285714  0.42857143  0.00000000       0.008
   0.00000000  0.00000000  0.20000000       0.008
   0.14285714 -0.00000000  0.20000000       0.008
   0.28571429  0.00000000  0.20000000       0.008
   0.42857143 -0.00000000  0.20000000       0.008
  -0.42857143  0.00000000  0.20000000       0.008
  -0.28571429  0.00000000  0.20000000       0.008
  -0.14285714  0.00000000  0.20000000       0.008
   0.00000000  0.14285714  0.20000000       0.008
   0.14285714  0.14285714  0.20000000       0.008
   0.28571429  0.14285714  0.20000000       0.008
   0.42857143  0.14285714  0.20000000       0.008
  -0.42857143  0.14285714  0.20000000       0.008
  -0.28571429  0.14285714  0.20000000       0.008
  -0.14285714  0.14285714  0.20000000       0.008
   0.00000000  0.28571429  0.20000000       0.008
   0.14285714  0.28571429  0.20000000       0.008
   0.28571429  0.28571429  0.20000000       0.008
   0.42857143  0.28571429  0.20000000       0.008
  -0.42857143  0.28571429  0.20000000       0.008
  -0.28571429  0.28571429  0.20000000       0.008
  -0.14285714  0.28571429  0.20000000       0.008
   0.00000000  0.42857143  0.20000000       0.008
   0.14285714  0.42857143  0.20000000       0.008
   0.28571429  0.42857143  0.20000000       0.008
   0.42857143  0.42857143  0.20000000       0.008
  -0.42857143  0.42857143  0.20000000       0.008
  -0.28571429  0.42857143  0.20000000       0.008
  -0.14285714  0.42857143  0.20000000       0.008
   0.00000000 -0.42857143  0.20000000       0.008
   0.14285714 -0.42857143  0.20000000       0.008
   0.28571429 -0.42857143  0.20000000       0.008
   0.42857143 -0.42857143  0.20000000       0.008
  -0.42857143 -0.42857143  0.20000000       0.008
  -0.28571429 -0.42857143  0.20000000       0.008
  -0.14285714 -0.42857143  0.20000000       0.008
  -0.00000000 -0.28571429  0.20000000       0.008
   0.14285714 -0.28571429  0.20000000       0.008
   0.28571429 -0.28571429  0.20000000       0.008
   0.42857143 -0.28571429  0.20000000       0.008
  -0.42857143 -0.28571429  0.20000000       0.008
  -0.28571429 -0.28571429  0.20000000       0.008
  -0.14285714 -0.28571429  0.20000000       0.008
   0.00000000 -0.14285714  0.20000000       0.008
   0.14285714 -0.14285714  0.20000000       0.008
   0.28571429 -0.14285714  0.20000000       0.008
   0.42857143 -0.14285714  0.20000000       0.008
  -0.42857143 -0.14285714  0.20000000       0.008
  -0.28571429 -0.14285714  0.20000000       0.008
  -0.14285714 -0.14285714  0.20000000       0.008
   0.00000000  0.00000000  0.40000000       0.008
   0.14285714 -0.00000000  0.40000000       0.008
   0.28571429  0.00000000  0.40000000       0.008
   0.42857143 -0.00000000  0.40000000       0.008
  -0.42857143  0.00000000  0.40000000       0.008
  -0.28571429  0.00000000  0.40000000       0.008
  -0.14285714  0.00000000  0.40000000       0.008
   0.00000000  0.14285714  0.40000000       0.008
   0.14285714  0.14285714  0.40000000       0.008
   0.28571429  0.14285714  0.40000000       0.008
   0.42857143  0.14285714  0.40000000       0.008
  -0.42857143  0.14285714  0.40000000       0.008
  -0.28571429  0.14285714  0.40000000       0.008
  -0.14285714  0.14285714  0.40000000       0.008
   0.00000000  0.28571429  0.40000000       0.008
   0.14285714  0.28571429  0.40000000       0.008
   0.28571429  0.28571429  0.40000000       0.008
   0.42857143  0.28571429  0.40000000       0.008
  -0.42857143  0.28571429  0.40000000       0.008
  -0.28571429  0.28571429  0.40000000       0.008
  -0.14285714  0.28571429  0.40000000       0.008
   0.00000000  0.42857143  0.40000000       0.008
   0.14285714  0.42857143  0.40000000       0.008
   0.28571429  0.42857143  0.40000000       0.008
   0.42857143  0.42857143  0.40000000       0.008
  -0.42857143  0.42857143  0.40000000       0.008
  -0.28571429  0.42857143  0.40000000       0.008
  -0.14285714  0.42857143  0.40000000       0.008
   0.00000000 -0.42857143  0.40000000       0.008
   0.14285714 -0.42857143  0.40000000       0.008
   0.28571429 -0.42857143  0.40000000       0.008
   0.42857143 -0.42857143  0.40000000       0.008
  -0.42857143 -0.42857143  0.40000000       0.008
  -0.28571429 -0.42857143  0.40000000       0.008
  -0.14285714 -0.42857143  0.40000000       0.008
  -0.00000000 -0.28571429  0.40000000       0.008
   0.14285714 -0.28571429  0.40000000       0.008
   0.28571429 -0.28571429  0.40000000       0.008
   0.42857143 -0.28571429  0.40000000       0.008
  -0.42857143 -0.28571429  0.40000000       0.008
  -0.28571429 -0.28571429  0.40000000       0.008
  -0.14285714 -0.28571429  0.40000000       0.008
   0.00000000 -0.14285714  0.40000000       0.008
   0.14285714 -0.14285714  0.40000000       0.008
   0.28571429 -0.14285714  0.40000000       0.008
   0.42857143 -0.14285714  0.40000000       0.008
  -0.42857143 -0.14285714  0.40000000       0.008
  -0.28571429 -0.14285714  0.40000000       0.008
  -0.14285714 -0.14285714  0.40000000       0.008
 
 position of ions in fractional coordinates (direct lattice) 
   0.11152358  0.22258994  0.12578019
   0.44407673  0.22258994  0.12500000
   0.77741006  0.22258994  0.12500000
   0.11074339  0.55592327  0.12500000
   0.44407673  0.55592327  0.12500000
   0.77741006  0.55592327  0.12500000
   0.11074339  0.88925661  0.12500000
   0.44407673  0.88925661  0.12500000
   0.77741006  0.88925661  0.12500000
   0.11074339  0.22258994  0.62500000
   0.44407673  0.22258994  0.62500000
   0.77741006  0.22258994  0.62500000
   0.11074339  0.55592327  0.62500000
   0.44407673  0.55592327  0.62500000
   0.77741006  0.55592327  0.62500000
   0.11074339  0.88925661  0.62500000
   0.44407673  0.88925661  0.62500000
   0.77741006  0.88925661  0.62500000
   0.22258994  0.11074339  0.37500000
   0.55592327  0.11074339  0.37500000
   0.88925661  0.11074339  0.37500000
   0.22258994  0.44407673  0.37500000
   0.55592327  0.44407673  0.37500000
   0.88925661  0.44407673  0.37500000
   0.22258994  0.77741006  0.37500000
   0.55592327  0.77741006  0.37500000
   0.88925661  0.77741006  0.37500000
   0.22258994  0.11074339  0.87500000
   0.55592327  0.11074339  0.87500000
   0.88925661  0.11074339  0.87500000
   0.22258994  0.44407673  0.87500000
   0.55592327  0.44407673  0.87500000
   0.88925661  0.44407673  0.87500000
   0.22258994  0.77741006  0.87500000
   0.55592327  0.77741006  0.87500000
   0.88925661  0.77741006  0.87500000
 
 position of ions in cartesian coordinates  (Angst):
   0.00679056  1.70586535  1.16969905
   2.94013115  1.71410118  1.16244365
   5.88035352  1.72235633  1.16244365
  -1.46305318  4.25628090  1.16244365
   1.47716919  4.26453605  1.16244365
   4.41739156  4.27279120  1.16244365
  -2.92601513  6.80671577  1.16244365
   0.01420723  6.81497092  1.16244365
   2.95442960  6.82322607  1.16244365
  -0.00009122  1.70584603  5.81221826
   2.94013115  1.71410118  5.81221826
   5.88035352  1.72235633  5.81221826
  -1.46305318  4.25628090  5.81221826
   1.47716919  4.26453605  5.81221826
   4.41739156  4.27279120  5.81221826
  -2.92601513  6.80671577  5.81221826
   0.01420723  6.81497092  5.81221826
   2.95442960  6.82322607  5.81221826
   1.47735163  0.85284398  3.48733095
   4.41757399  0.86109913  3.48733095
   7.35779636  0.86935428  3.48733095
   0.01438967  3.40327885  3.48733095
   2.95461204  3.41153400  3.48733095
   5.89483440  3.41978915  3.48733095
  -1.44857229  5.95371372  3.48733095
   1.49165008  5.96196887  3.48733095
   4.43187245  5.97022402  3.48733095
   1.47735163  0.85284398  8.13710556
   4.41757399  0.86109913  8.13710556
   7.35779636  0.86935428  8.13710556
   0.01438967  3.40327885  8.13710556
   2.95461204  3.41153400  8.13710556
   5.89483440  3.41978915  8.13710556
  -1.44857229  5.95371372  8.13710556
   1.49165008  5.96196887  8.13710556
   4.43187245  5.97022402  8.13710556
 


--------------------------------------------------------------------------------------------------------


 k-point  1 :  0.00000.00000.0000  plane waves:  15979
 k-point  2 :  0.1429-.00000.0000  plane waves:  15945
 k-point  3 :  0.28570.00000.0000  plane waves:  15947
 k-point  4 :  0.4286-.00000.0000  plane waves:  15942
 k-point  5 :  0.00000.14290.0000  plane waves:  15945
 k-point  6 :  0.14290.14290.0000  plane waves:  15952
 k-point  7 :  0.28570.14290.0000  plane waves:  15950
 k-point  8 :  0.42860.14290.0000  plane waves:  15938
 k-point  9 :  -.42860.14290.0000  plane waves:  15928
 k-point 10 :  -.28570.14290.0000  plane waves:  15948
 k-point 11 :  -.14290.14290.0000  plane waves:  15968
 k-point 12 :  0.00000.28570.0000  plane waves:  15947
 k-point 13 :  0.14290.28570.0000  plane waves:  15950
 k-point 14 :  0.28570.28570.0000  plane waves:  15956
 k-point 15 :  0.42860.28570.0000  plane waves:  15947
 k-point 16 :  -.42860.28570.0000  plane waves:  15967
 k-point 17 :  -.28570.28570.0000  plane waves:  15956
 k-point 18 :  -.14290.28570.0000  plane waves:  15948
 k-point 19 :  0.00000.42860.0000  plane waves:  15942
 k-point 20 :  0.14290.42860.0000  plane waves:  15938
 k-point 21 :  0.28570.42860.0000  plane waves:  15947
 k-point 22 :  0.42860.42860.0000  plane waves:  15966
 k-point 23 :  -.42860.42860.0000  plane waves:  15962
 k-point 24 :  -.28570.42860.0000  plane waves:  15967
 k-point 25 :  -.14290.42860.0000  plane waves:  15928
 k-point 26 :  0.00000.00000.2000  plane waves:  15960
 k-point 27 :  0.1429-.00000.2000  plane waves:  15953
 k-point 28 :  0.28570.00000.2000  plane waves:  15956
 k-point 29 :  0.4286-.00000.2000  plane waves:  15960
 k-point 30 :  -.42860.00000.2000  plane waves:  15960
 k-point 31 :  -.28570.00000.2000  plane waves:  15956
 k-point 32 :  -.14290.00000.2000  plane waves:  15953
 k-point 33 :  0.00000.14290.2000  plane waves:  15953
 k-point 34 :  0.14290.14290.2000  plane waves:  15945
 k-point 35 :  0.28570.14290.2000  plane waves:  15948
 k-point 36 :  0.42860.14290.2000  plane waves:  15964
 k-point 37 :  -.42860.14290.2000  plane waves:  15953
 k-point 38 :  -.28570.14290.2000  plane waves:  15940
 k-point 39 :  -.14290.14290.2000  plane waves:  15937
 k-point 40 :  0.00000.28570.2000  plane waves:  15956
 k-point 41 :  0.14290.28570.2000  plane waves:  15948
 k-point 42 :  0.28570.28570.2000  plane waves:  15981
 k-point 43 :  0.42860.28570.2000  plane waves:  15977
 k-point 44 :  -.42860.28570.2000  plane waves:  15947
 k-point 45 :  -.28570.28570.2000  plane waves:  15976
 k-point 46 :  -.14290.28570.2000  plane waves:  15940
 k-point 47 :  0.00000.42860.2000  plane waves:  15960
 k-point 48 :  0.14290.42860.2000  plane waves:  15964
 k-point 49 :  0.28570.42860.2000  plane waves:  15977
 k-point 50 :  0.42860.42860.2000  plane waves:  15966
 k-point 51 :  -.42860.42860.2000  plane waves:  15989
 k-point 52 :  -.28570.42860.2000  plane waves:  15947
 k-point 53 :  -.14290.42860.2000  plane waves:  15953
 k-point 54 :  0.0000-.42860.2000  plane waves:  15960
 k-point 55 :  0.1429-.42860.2000  plane waves:  15953
 k-point 56 :  0.2857-.42860.2000  plane waves:  15947
 k-point 57 :  0.4286-.42860.2000  plane waves:  15989
 k-point 58 :  -.4286-.42860.2000  plane waves:  15966
 k-point 59 :  -.2857-.42860.2000  plane waves:  15977
 k-point 60 :  -.1429-.42860.2000  plane waves:  15964
 k-point 61 :  -.0000-.28570.2000  plane waves:  15956
 k-point 62 :  0.1429-.28570.2000  plane waves:  15940
 k-point 63 :  0.2857-.28570.2000  plane waves:  15976
 k-point 64 :  0.4286-.28570.2000  plane waves:  15947
 k-point 65 :  -.4286-.28570.2000  plane waves:  15977
 k-point 66 :  -.2857-.28570.2000  plane waves:  15981
 k-point 67 :  -.1429-.28570.2000  plane waves:  15948
 k-point 68 :  0.0000-.14290.2000  plane waves:  15953
 k-point 69 :  0.1429-.14290.2000  plane waves:  15937
 k-point 70 :  0.2857-.14290.2000  plane waves:  15940
 k-point 71 :  0.4286-.14290.2000  plane waves:  15953
 k-point 72 :  -.4286-.14290.2000  plane waves:  15964
 k-point 73 :  -.2857-.14290.2000  plane waves:  15948
 k-point 74 :  -.1429-.14290.2000  plane waves:  15945
 k-point 75 :  0.00000.00000.4000  plane waves:  15902
 k-point 76 :  0.1429-.00000.4000  plane waves:  15941
 k-point 77 :  0.28570.00000.4000  plane waves:  15959
 k-point 78 :  0.4286-.00000.4000  plane waves:  15981
 k-point 79 :  -.42860.00000.4000  plane waves:  15981
 k-point 80 :  -.28570.00000.4000  plane waves:  15959
 k-point 81 :  -.14290.00000.4000  plane waves:  15941
 k-point 82 :  0.00000.14290.4000  plane waves:  15941
 k-point 83 :  0.14290.14290.4000  plane waves:  15959
 k-point 84 :  0.28570.14290.4000  plane waves:  15982
 k-point 85 :  0.42860.14290.4000  plane waves:  15966
 k-point 86 :  -.42860.14290.4000  plane waves:  15989
 k-point 87 :  -.28570.14290.4000  plane waves:  15956
 k-point 88 :  -.14290.14290.4000  plane waves:  15936
 k-point 89 :  0.00000.28570.4000  plane waves:  15959
 k-point 90 :  0.14290.28570.4000  plane waves:  15982
 k-point 91 :  0.28570.28570.4000  plane waves:  15963
 k-point 92 :  0.42860.28570.4000  plane waves:  15967
 k-point 93 :  -.42860.28570.4000  plane waves:  15981
 k-point 94 :  -.28570.28570.4000  plane waves:  15966
 k-point 95 :  -.14290.28570.4000  plane waves:  15956
 k-point 96 :  0.00000.42860.4000  plane waves:  15981
 k-point 97 :  0.14290.42860.4000  plane waves:  15966
 k-point 98 :  0.28570.42860.4000  plane waves:  15967
 k-point 99 :  0.42860.42860.4000  plane waves:  15963
 k-point ** :  -.42860.42860.4000  plane waves:  15985
 k-point ** :  -.28570.42860.4000  plane waves:  15981
 k-point ** :  -.14290.42860.4000  plane waves:  15989
 k-point ** :  0.0000-.42860.4000  plane waves:  15981
 k-point ** :  0.1429-.42860.4000  plane waves:  15989
 k-point ** :  0.2857-.42860.4000  plane waves:  15981
 k-point ** :  0.4286-.42860.4000  plane waves:  15985
 k-point ** :  -.4286-.42860.4000  plane waves:  15963
 k-point ** :  -.2857-.42860.4000  plane waves:  15967
 k-point ** :  -.1429-.42860.4000  plane waves:  15966
 k-point ** :  -.0000-.28570.4000  plane waves:  15959
 k-point ** :  0.1429-.28570.4000  plane waves:  15956
 k-point ** :  0.2857-.28570.4000  plane waves:  15966
 k-point ** :  0.4286-.28570.4000  plane waves:  15981
 k-point ** :  -.4286-.28570.4000  plane waves:  15967
 k-point ** :  -.2857-.28570.4000  plane waves:  15963
 k-point ** :  -.1429-.28570.4000  plane waves:  15982
 k-point ** :  0.0000-.14290.4000  plane waves:  15941
 k-point ** :  0.1429-.14290.4000  plane waves:  15936
 k-point ** :  0.2857-.14290.4000  plane waves:  15956
 k-point ** :  0.4286-.14290.4000  plane waves:  15989
 k-point ** :  -.4286-.14290.4000  plane waves:  15966
 k-point ** :  -.2857-.14290.4000  plane waves:  15982
 k-point ** :  -.1429-.14290.4000  plane waves:  15959

 maximum and minimum number of plane-waves per node :  15989 15902

 maximum number of plane-waves:  15989
 maximal index in each direction: 
   IXMAX= 16   IYMAX= 16   IZMAX= 16
   IXMIN=-16   IYMIN=-16   IZMIN=-17

 WARNING: wrap around error must be expected set NGX to  66
 WARNING: wrap around error must be expected set NGY to  66
 NGZ is ok and might be reduce to  68

 parallel 3dFFT wavefunction:
    minimum data exchange during FFTs selected (reduces bandwidth)
 parallel 3dFFT charge:
    minimum data exchange during FFTs selected (reduces bandwidth)

 For storing wavefunctions 6784.26 MBYTES are necessary
 For predicting wavefunctions  120.72 MBYTES are necessary
Broyden mixing: mesh for mixing (old mesh)
   NGX = 33   NGY = 33   NGZ = 33
  (NGX  =128   NGY  =128   NGZ  =140)
 gives a total of  35937 points
 initial charge density was supplied:
 charge density of overlapping atoms calculated
 number of electron  360.0000000 magnetization 
 keeping initial charge density in first step


--------------------------------------------------------------------------------------------------------


 Maximum index for augmentation-charges         4328 (set IRDMAX)


--------------------------------------------------------------------------------------------------------


 First call to EWALD:  gamma=   0.207
 Maximum number of real-space cells 3x 3x 3
 Maximum number of reciprocal cells 3x 3x 3

    FEWALD:  VPU time    0.01: CPU time    0.01


----------------------------------------- Iteration    1(   1)  ---------------------------------------


    POTLOK:  VPU time    1.35: CPU time    1.35
    SETDIJ:  VPU time    0.06: CPU time    0.06
    EDDAV :  VPU time 3350.89: CPU time 3352.95
    DOS   :  VPU time   -0.00: CPU time   -0.00
    ------------------------------------------
      LOOP:  VPU time 3352.65: CPU time 3354.72

 eigenvalue-minimisations  : 53896
 total energy-change (2. order) : 0.4980611E+04  (-0.1719414E+05)
 number of electron  360.0000000 magnetization 
 augmentation part   360.0000000 magnetization 

 Free energy of the ion-electron system (eV)
  ---------------------------------------------------
  alpha Z        PSCENC =      2248.03169769
  Ewald energy   TEWEN  =    -28849.98002699
  -1/2 Hartree   DENC   =     -8014.13535337
  -V(xc)+E(xc)   XCENC  =      1292.27886497
  PAW double counting   =     25711.31321228   -25685.71707589
  entropy T*S    EENTRO =        -0.00101221
  eigenvalues    EBANDS =       753.29654663
  atomic energy  EATOM  =     37525.52423787
  ---------------------------------------------------
  free energy    TOTEN  =      4980.61109098 eV

  energy without entropy =     4980.61210320  energy(sigma->0) =     4980.61159709


--------------------------------------------------------------------------------------------------------




----------------------------------------- Iteration    1(   2)  ---------------------------------------


    EDDAV :  VPU time 3310.49: CPU time 3346.48
    DOS   :  VPU time    0.00: CPU time   -0.00
    ------------------------------------------
      LOOP:  VPU time 3310.83: CPU time 3346.86

 eigenvalue-minimisations  : 53136
 total energy-change (2. order) :-0.4889796E+04  (-0.4814486E+04)
 number of electron  360.0000000 magnetization 
 augmentation part   360.0000000 magnetization 

 Free energy of the ion-electron system (eV)
  ---------------------------------------------------
  alpha Z        PSCENC =      2248.03169769
  Ewald energy   TEWEN  =    -28849.98002699
  -1/2 Hartree   DENC   =     -8014.13535337
  -V(xc)+E(xc)   XCENC  =      1292.27886497
  PAW double counting   =     25711.31321228   -25685.71707589
  entropy T*S    EENTRO =        -0.00155453
  eigenvalues    EBANDS =     -4136.49852025
  atomic energy  EATOM  =     37525.52423787
  ---------------------------------------------------
  free energy    TOTEN  =        90.81548178 eV

  energy without entropy =       90.81703631  energy(sigma->0) =       90.81625905


--------------------------------------------------------------------------------------------------------




----------------------------------------- Iteration    1(   3)  ---------------------------------------


    EDDAV :  VPU time 4419.00: CPU time 4468.53
    DOS   :  VPU time    0.00: CPU time   -0.00
    ------------------------------------------
      LOOP:  VPU time 4419.35: CPU time 4468.89

 eigenvalue-minimisations  : 77704
 total energy-change (2. order) :-0.3831779E+03  (-0.3605238E+03)
 number of electron  360.0000000 magnetization 
 augmentation part   360.0000000 magnetization 

 Free energy of the ion-electron system (eV)
  ---------------------------------------------------
  alpha Z        PSCENC =      2248.03169769
  Ewald energy   TEWEN  =    -28849.98002699
  -1/2 Hartree   DENC   =     -8014.13535337
  -V(xc)+E(xc)   XCENC  =      1292.27886497
  PAW double counting   =     25711.31321228   -25685.71707589
  entropy T*S    EENTRO =        -0.00148652
  eigenvalues    EBANDS =     -4519.67647988
  atomic energy  EATOM  =     37525.52423787
  ---------------------------------------------------
  free energy    TOTEN  =      -292.36240984 eV

  energy without entropy =     -292.36092332  energy(sigma->0) =     -292.36166658


--------------------------------------------------------------------------------------------------------




----------------------------------------- Iteration    1(   4)  ---------------------------------------


    EDDAV :  VPU time 4140.56: CPU time 4186.10
    DOS   :  VPU time    0.00: CPU time   -0.00
    ------------------------------------------
      LOOP:  VPU time 4140.90: CPU time 4186.45

 eigenvalue-minimisations  : 72648
 total energy-change (2. order) :-0.3164409E+02  (-0.3074071E+02)
 number of electron  360.0000000 magnetization 
 augmentation part   360.0000000 magnetization 

 Free energy of the ion-electron system (eV)
  ---------------------------------------------------
  alpha Z        PSCENC =      2248.03169769
  Ewald energy   TEWEN  =    -28849.98002699
  -1/2 Hartree   DENC   =     -8014.13535337
  -V(xc)+E(xc)   XCENC  =      1292.27886497
  PAW double counting   =     25711.31321228   -25685.71707589
  entropy T*S    EENTRO =        -0.00086626
  eigenvalues    EBANDS =     -4551.32118795
  atomic energy  EATOM  =     37525.52423787
  ---------------------------------------------------
  free energy    TOTEN  =      -324.00649764 eV

  energy without entropy =     -324.00563138  energy(sigma->0) =     -324.00606451


--------------------------------------------------------------------------------------------------------




----------------------------------------- Iteration    1(   5)  ---------------------------------------


    EDDAV :  VPU time 3950.29: CPU time 3993.34
    DOS   :  VPU time    0.00: CPU time   -0.00
    CHARGE:  VPU time  194.31: CPU time  196.60
    MIXING:  VPU time    0.04: CPU time    0.04
    ------------------------------------------
      LOOP:  VPU time 4144.99: CPU time 4190.33

 eigenvalue-minimisations  : 69456
 total energy-change (2. order) :-0.9447727E+00  (-0.9228238E+00)
 number of electron  360.0000131 magnetization 
 augmentation part   157.1645782 magnetization 

 Broyden mixing:
  rms(total) = 0.35886E+01    rms(broyden)= 0.35886E+01
  rms(prec ) = 0.50972E+01
  weight for this iteration     100.00

 Free energy of the ion-electron system (eV)
  ---------------------------------------------------
  alpha Z        PSCENC =      2248.03169769
  Ewald energy   TEWEN  =    -28849.98002699
  -1/2 Hartree   DENC   =     -8014.13535337
  -V(xc)+E(xc)   XCENC  =      1292.27886497
  PAW double counting   =     25711.31321228   -25685.71707589
  entropy T*S    EENTRO =        -0.00078409
  eigenvalues    EBANDS =     -4552.26604286
  atomic energy  EATOM  =     37525.52423787
  ---------------------------------------------------
  free energy    TOTEN  =      -324.95127039 eV

  energy without entropy =     -324.95048630  energy(sigma->0) =     -324.95087834


--------------------------------------------------------------------------------------------------------




----------------------------------------- Iteration    1(   6)  ---------------------------------------


    POTLOK:  VPU time    1.86: CPU time    1.88
    SETDIJ:  VPU time    0.07: CPU time    0.07
    EDDAV :  VPU time 3425.56: CPU time 3464.16
    DOS   :  VPU time   -0.00: CPU time   -0.00
    CHARGE:  VPU time  187.19: CPU time  189.43
    MIXING:  VPU time    0.05: CPU time    0.05
    ------------------------------------------
      LOOP:  VPU time 3615.07: CPU time 3655.95

 eigenvalue-minimisations  : 58024
 total energy-change (2. order) : 0.3882977E+02  (-0.1210801E+02)
 number of electron  360.0000141 magnetization 
 augmentation part   166.5967749 magnetization 

 Broyden mixing:
  rms(total) = 0.90831E+00    rms(broyden)= 0.90827E+00
  rms(prec ) = 0.13064E+01
  weight for this iteration     100.00

 eigenvalues of (default mixing * dielectric matrix)
  average eigenvalue GAMMA=   1.2621
  1.2621

 Free energy of the ion-electron system (eV)
  ---------------------------------------------------
  alpha Z        PSCENC =      2248.03169769
  Ewald energy   TEWEN  =    -28849.98002699
  -1/2 Hartree   DENC   =     -7300.84897365
  -V(xc)+E(xc)   XCENC  =      1254.50440075
  PAW double counting   =     24899.13808971   -24941.54448815
  entropy T*S    EENTRO =        -0.00202539
  eigenvalues    EBANDS =     -5120.94440789
  atomic energy  EATOM  =     37525.52423787
  ---------------------------------------------------
  free energy    TOTEN  =      -286.12149604 eV

  energy without entropy =     -286.11947065  energy(sigma->0) =     -286.12048334


--------------------------------------------------------------------------------------------------------




----------------------------------------- Iteration    1(   7)  ---------------------------------------


    POTLOK:  VPU time    1.94: CPU time    1.97
    SETDIJ:  VPU time    0.07: CPU time    0.07
    EDDAV :  VPU time 3973.32: CPU time 4013.92
    DOS   :  VPU time    0.00: CPU time   -0.00
    CHARGE:  VPU time  186.28: CPU time  188.28
    MIXING:  VPU time    0.06: CPU time    0.06
    ------------------------------------------
      LOOP:  VPU time 4162.03: CPU time 4204.66

 eigenvalue-minimisations  : 69984
 total energy-change (2. order) : 0.1894280E+01  (-0.1549183E+01)
 number of electron  360.0000144 magnetization 
 augmentation part   169.9604114 magnetization 

 Broyden mixing:
  rms(total) = 0.35512E+00    rms(broyden)= 0.35510E+00
  rms(prec ) = 0.42447E+00
  weight for this iteration     100.00

 eigenvalues of (default mixing * dielectric matrix)
  average eigenvalue GAMMA=   1.8505
  1.4023  2.2987

 Free energy of the ion-electron system (eV)
  ---------------------------------------------------
  alpha Z        PSCENC =      2248.03169769
  Ewald energy   TEWEN  =    -28849.98002699
  -1/2 Hartree   DENC   =     -7091.03951305
  -V(xc)+E(xc)   XCENC  =      1244.13892056
  PAW double counting   =     25027.47481238   -25108.70272448
  entropy T*S    EENTRO =        -0.00218906
  eigenvalues    EBANDS =     -5279.67243072
  atomic energy  EATOM  =     37525.52423787
  ---------------------------------------------------
  free energy    TOTEN  =      -284.22721579 eV

  energy without entropy =     -284.22502673  energy(sigma->0) =     -284.22612126


--------------------------------------------------------------------------------------------------------




----------------------------------------- Iteration    1(   8)  ---------------------------------------


    POTLOK:  VPU time    1.86: CPU time    1.88
    SETDIJ:  VPU time    0.07: CPU time    0.07
    EDDAV :  VPU time 4025.58: CPU time 4066.40
    DOS   :  VPU time   -0.00: CPU time   -0.00
    CHARGE:  VPU time  193.29: CPU time  195.36
    MIXING:  VPU time    0.04: CPU time    0.05
    ------------------------------------------
      LOOP:  VPU time 4221.20: CPU time 4264.13

 eigenvalue-minimisations  : 70872
 total energy-change (2. order) :-0.9210349E-01  (-0.2832002E+00)
 number of electron  360.0000144 magnetization 
 augmentation part   169.0159193 magnetization 

 Broyden mixing:
  rms(total) = 0.39151E+00    rms(broyden)= 0.39150E+00
  rms(prec ) = 0.86466E+00
  weight for this iteration     100.00

 eigenvalues of (default mixing * dielectric matrix)
  average eigenvalue GAMMA=   1.3730
  2.5171  1.3623  0.2396

 Free energy of the ion-electron system (eV)
  ---------------------------------------------------
  alpha Z        PSCENC =      2248.03169769
  Ewald energy   TEWEN  =    -28849.98002699
  -1/2 Hartree   DENC   =     -7128.26899889
  -V(xc)+E(xc)   XCENC  =      1247.13219924
  PAW double counting   =     25536.03828426   -25633.57862104
  entropy T*S    EENTRO =        -0.00227208
  eigenvalues    EBANDS =     -5229.21581936
  atomic energy  EATOM  =     37525.52423787
  ---------------------------------------------------
  free energy    TOTEN  =      -284.31931927 eV

  energy without entropy =     -284.31704720  energy(sigma->0) =     -284.31818323


--------------------------------------------------------------------------------------------------------




----------------------------------------- Iteration    1(   9)  ---------------------------------------


    POTLOK:  VPU time    1.85: CPU time    1.87
    SETDIJ:  VPU time    0.07: CPU time    0.07
    EDDAV :  VPU time 4190.74: CPU time 4233.91
    DOS   :  VPU time   -0.00: CPU time   -0.00
    CHARGE:  VPU time  198.51: CPU time  200.73
    MIXING:  VPU time    0.05: CPU time    0.05
    ------------------------------------------
      LOOP:  VPU time 4391.57: CPU time 4436.99

 eigenvalue-minimisations  : 74840
 total energy-change (2. order) : 0.1867142E+00  (-0.1047585E+00)
 number of electron  360.0000144 magnetization 
 augmentation part   168.9389644 magnetization 

 Broyden mixing:
  rms(total) = 0.17471E+00    rms(broyden)= 0.17470E+00
  rms(prec ) = 0.25454E+00
  weight for this iteration     100.00

 eigenvalues of (default mixing * dielectric matrix)
  average eigenvalue GAMMA=   1.1559
  2.5611  1.2955  0.5447  0.2222

 Free energy of the ion-electron system (eV)
  ---------------------------------------------------
  alpha Z        PSCENC =      2248.03169769
  Ewald energy   TEWEN  =    -28849.98002699
  -1/2 Hartree   DENC   =     -7126.77532351
  -V(xc)+E(xc)   XCENC  =      1247.35870787
  PAW double counting   =     25660.90724482   -25763.69339691
  entropy T*S    EENTRO =        -0.00209436
  eigenvalues    EBANDS =     -5225.50365155
  atomic energy  EATOM  =     37525.52423787
  ---------------------------------------------------
  free energy    TOTEN  =      -284.13260505 eV

  energy without entropy =     -284.13051069  energy(sigma->0) =     -284.13155787


--------------------------------------------------------------------------------------------------------




----------------------------------------- Iteration    1(  10)  ---------------------------------------


    POTLOK:  VPU time    1.86: CPU time    1.88
    SETDIJ:  VPU time    0.07: CPU time    0.08
    EDDAV :  VPU time 4063.07: CPU time 4105.09
    DOS   :  VPU time    0.00: CPU time   -0.00
    CHARGE:  VPU time  208.54: CPU time  210.91
    MIXING:  VPU time    0.05: CPU time    0.05
    ------------------------------------------
      LOOP:  VPU time 4273.95: CPU time 4318.37

 eigenvalue-minimisations  : 71640
 total energy-change (2. order) : 0.6161175E-01  (-0.1567638E-01)
 number of electron  360.0000144 magnetization 
 augmentation part   169.1805715 magnetization 

 Broyden mixing:
  rms(total) = 0.10343E+00    rms(broyden)= 0.10343E+00
  rms(prec ) = 0.15009E+00
  weight for this iteration     100.00

 eigenvalues of (default mixing * dielectric matrix)
  average eigenvalue GAMMA=   1.0792
  2.5959  1.1680  1.1680  0.2321  0.2321

 Free energy of the ion-electron system (eV)
  ---------------------------------------------------
  alpha Z        PSCENC =      2248.03169769
  Ewald energy   TEWEN  =    -28849.98002699
  -1/2 Hartree   DENC   =     -7110.74182353
  -V(xc)+E(xc)   XCENC  =      1246.50403319
  PAW double counting   =     25634.16424102   -25737.51951334
  entropy T*S    EENTRO =        -0.00232923
  eigenvalues    EBANDS =     -5240.05150996
  atomic energy  EATOM  =     37525.52423787
  ---------------------------------------------------
  free energy    TOTEN  =      -284.07099329 eV

  energy without entropy =     -284.06866406  energy(sigma->0) =     -284.06982868


--------------------------------------------------------------------------------------------------------




----------------------------------------- Iteration    1(  11)  ---------------------------------------


    POTLOK:  VPU time    1.84: CPU time    1.86
    SETDIJ:  VPU time    0.07: CPU time    0.07
    EDDAV :  VPU time 3660.29: CPU time 3700.26
    DOS   :  VPU time    0.00: CPU time   -0.00
    CHARGE:  VPU time  213.81: CPU time  216.24
    MIXING:  VPU time    0.05: CPU time    0.05
    ------------------------------------------
      LOOP:  VPU time 3876.40: CPU time 3918.83

 eigenvalue-minimisations  : 62832
 total energy-change (2. order) : 0.3213700E-01  (-0.2161661E-01)
 number of electron  360.0000144 magnetization 
 augmentation part   169.5996837 magnetization 

 Broyden mixing:
  rms(total) = 0.23006E-01    rms(broyden)= 0.23004E-01
  rms(prec ) = 0.36553E-01
  weight for this iteration     100.00

 eigenvalues of (default mixing * dielectric matrix)
  average eigenvalue GAMMA=   0.9898
  2.5893  1.2382  1.2382  0.4019  0.2183  0.2527

 Free energy of the ion-electron system (eV)
  ---------------------------------------------------
  alpha Z        PSCENC =      2248.03169769
  Ewald energy   TEWEN  =    -28849.98002699
  -1/2 Hartree   DENC   =     -7087.63721771
  -V(xc)+E(xc)   XCENC  =      1245.25351871
  PAW double counting   =     25588.75139392   -25692.28938431
  entropy T*S    EENTRO =        -0.00220326
  eigenvalues    EBANDS =     -5261.69087222
  atomic energy  EATOM  =     37525.52423787
  ---------------------------------------------------
  free energy    TOTEN  =      -284.03885629 eV

  energy without entropy =     -284.03665304  energy(sigma->0) =     -284.03775466


--------------------------------------------------------------------------------------------------------




----------------------------------------- Iteration    1(  12)  ---------------------------------------


    POTLOK:  VPU time    1.85: CPU time    1.87
    SETDIJ:  VPU time    0.07: CPU time    0.07
    EDDAV :  VPU time 4049.55: CPU time 4091.80
    DOS   :  VPU time   -0.00: CPU time   -0.00
    CHARGE:  VPU time  219.07: CPU time  221.56
    MIXING:  VPU time    0.05: CPU time    0.05
    ------------------------------------------
      LOOP:  VPU time 4270.94: CPU time 4315.70

 eigenvalue-minimisations  : 71744
 total energy-change (2. order) :-0.7821369E-03  (-0.1024748E-02)
 number of electron  360.0000144 magnetization 
 augmentation part   169.6299454 magnetization 

 Broyden mixing:
  rms(total) = 0.24449E-01    rms(broyden)= 0.24449E-01
  rms(prec ) = 0.34051E-01
  weight for this iteration     100.00

 eigenvalues of (default mixing * dielectric matrix)
  average eigenvalue GAMMA=   1.0302
  2.5393  1.8369  1.1911  0.9074  0.2164  0.2601  0.2601

 Free energy of the ion-electron system (eV)
  ---------------------------------------------------
  alpha Z        PSCENC =      2248.03169769
  Ewald energy   TEWEN  =    -28849.98002699
  -1/2 Hartree   DENC   =     -7086.91581616
  -V(xc)+E(xc)   XCENC  =      1245.21247158
  PAW double counting   =     25586.69302776   -25689.74944073
  entropy T*S    EENTRO =        -0.00217444
  eigenvalues    EBANDS =     -5262.85361502
  atomic energy  EATOM  =     37525.52423787
  ---------------------------------------------------
  free energy    TOTEN  =      -284.03963843 eV

  energy without entropy =     -284.03746399  energy(sigma->0) =     -284.03855121


--------------------------------------------------------------------------------------------------------




----------------------------------------- Iteration    1(  13)  ---------------------------------------


    POTLOK:  VPU time    1.79: CPU time    1.99
    SETDIJ:  VPU time    0.07: CPU time    0.07
    EDDAV :  VPU time 3940.91: CPU time 3981.68
    DOS   :  VPU time    0.00: CPU time   -0.00
    CHARGE:  VPU time  212.43: CPU time  214.87
    MIXING:  VPU time    0.04: CPU time    0.04
    ------------------------------------------
      LOOP:  VPU time 4155.58: CPU time 4199.01

 eigenvalue-minimisations  : 68752
 total energy-change (2. order) : 0.1079208E-02  (-0.3015763E-03)
 number of electron  360.0000144 magnetization 
 augmentation part   169.5900430 magnetization 

 Broyden mixing:
  rms(total) = 0.11238E-01    rms(broyden)= 0.11238E-01
  rms(prec ) = 0.17131E-01
  weight for this iteration     100.00

 eigenvalues of (default mixing * dielectric matrix)
  average eigenvalue GAMMA=   0.9775
  2.5259  2.0948  1.1380  0.9563  0.3790  0.2175  0.2545  0.2545

 Free energy of the ion-electron system (eV)
  ---------------------------------------------------
  alpha Z        PSCENC =      2248.03169769
  Ewald energy   TEWEN  =    -28849.98002699
  -1/2 Hartree   DENC   =     -7090.50707538
  -V(xc)+E(xc)   XCENC  =      1245.40448316
  PAW double counting   =     25592.61347674   -25694.32550037
  entropy T*S    EENTRO =        -0.00223905
  eigenvalues    EBANDS =     -5260.79761289
  atomic energy  EATOM  =     37525.52423787
  ---------------------------------------------------
  free energy    TOTEN  =      -284.03855922 eV

  energy without entropy =     -284.03632017  energy(sigma->0) =     -284.03743970


--------------------------------------------------------------------------------------------------------




----------------------------------------- Iteration    1(  14)  ---------------------------------------


    POTLOK:  VPU time    1.61: CPU time    1.63
    SETDIJ:  VPU time    0.07: CPU time    0.07
    EDDAV :  VPU time 3979.76: CPU time 4021.00
    DOS   :  VPU time   -0.00: CPU time   -0.00
    CHARGE:  VPU time  216.23: CPU time  218.69
    MIXING:  VPU time    0.05: CPU time    0.05
    ------------------------------------------
      LOOP:  VPU time 4198.06: CPU time 4241.78

 eigenvalue-minimisations  : 70744
 total energy-change (2. order) : 0.2236881E-03  (-0.7040567E-04)
 number of electron  360.0000144 magnetization 
 augmentation part   169.5747751 magnetization 

 Broyden mixing:
  rms(total) = 0.57554E-02    rms(broyden)= 0.57552E-02
  rms(prec ) = 0.90707E-02
  weight for this iteration     100.00

 eigenvalues of (default mixing * dielectric matrix)
  average eigenvalue GAMMA=   0.9764
  2.6059  2.0339  1.2531  0.9536  0.9536  0.2165  0.2604  0.2604  0.2501

 Free energy of the ion-electron system (eV)
  ---------------------------------------------------
  alpha Z        PSCENC =      2248.03169769
  Ewald energy   TEWEN  =    -28849.98002699
  -1/2 Hartree   DENC   =     -7091.81337149
  -V(xc)+E(xc)   XCENC  =      1245.47628889
  PAW double counting   =     25595.33395417   -25696.54517632
  entropy T*S    EENTRO =        -0.00226132
  eigenvalues    EBANDS =     -5260.06367804
  atomic energy  EATOM  =     37525.52423787
  ---------------------------------------------------
  free energy    TOTEN  =      -284.03833553 eV

  energy without entropy =     -284.03607422  energy(sigma->0) =     -284.03720488


--------------------------------------------------------------------------------------------------------




----------------------------------------- Iteration    1(  15)  ---------------------------------------


    POTLOK:  VPU time    1.62: CPU time    1.66
    SETDIJ:  VPU time    0.07: CPU time    0.07
    EDDAV :  VPU time 4067.05: CPU time 4108.91
    DOS   :  VPU time   -0.00: CPU time   -0.00
    CHARGE:  VPU time  214.69: CPU time  217.14
    MIXING:  VPU time    0.05: CPU time    0.05
    ------------------------------------------
      LOOP:  VPU time 4283.82: CPU time 4328.20

 eigenvalue-minimisations  : 72720
 total energy-change (2. order) : 0.3728567E-04  (-0.1380956E-04)
 number of electron  360.0000144 magnetization 
 augmentation part   169.5720570 magnetization 

 Broyden mixing:
  rms(total) = 0.37020E-02    rms(broyden)= 0.37020E-02
  rms(prec ) = 0.60427E-02
  weight for this iteration     100.00

 eigenvalues of (default mixing * dielectric matrix)
  average eigenvalue GAMMA=   0.9192
  2.6191  2.0190  1.3008  1.0010  1.0010  0.2823  0.2823  0.2164  0.2349  0.2349

 Free energy of the ion-electron system (eV)
  ---------------------------------------------------
  alpha Z        PSCENC =      2248.03169769
  Ewald energy   TEWEN  =    -28849.98002699
  -1/2 Hartree   DENC   =     -7092.10819337
  -V(xc)+E(xc)   XCENC  =      1245.49584886
  PAW double counting   =     25596.86174735   -25697.91203805
  entropy T*S    EENTRO =        -0.00226434
  eigenvalues    EBANDS =     -5259.94930727
  atomic energy  EATOM  =     37525.52423787
  ---------------------------------------------------
  free energy    TOTEN  =      -284.03829825 eV

  energy without entropy =     -284.03603391  energy(sigma->0) =     -284.03716608


--------------------------------------------------------------------------------------------------------




----------------------------------------- Iteration    1(  16)  ---------------------------------------


    POTLOK:  VPU time    1.66: CPU time    1.67
    SETDIJ:  VPU time    0.07: CPU time    0.07
    EDDAV :  VPU time 4108.43: CPU time 4150.61
    DOS   :  VPU time    0.00: CPU time   -0.00
    CHARGE:  VPU time  216.20: CPU time  218.69
    MIXING:  VPU time    0.06: CPU time    0.06
    ------------------------------------------
      LOOP:  VPU time 4326.74: CPU time 4371.46

 eigenvalue-minimisations  : 73320
 total energy-change (2. order) : 0.1726472E-04  (-0.4478670E-05)
 number of electron  360.0000144 magnetization 
 augmentation part   169.5704668 magnetization 

 Broyden mixing:
  rms(total) = 0.26212E-02    rms(broyden)= 0.26212E-02
  rms(prec ) = 0.36809E-02
  weight for this iteration     100.00

 eigenvalues of (default mixing * dielectric matrix)
  average eigenvalue GAMMA=   0.9592
  2.6236  2.0597  1.6435  1.1106  1.1106  0.7987  0.2705  0.2541  0.2541  0.2156
  0.2098

 Free energy of the ion-electron system (eV)
  ---------------------------------------------------
  alpha Z        PSCENC =      2248.03169769
  Ewald energy   TEWEN  =    -28849.98002699
  -1/2 Hartree   DENC   =     -7092.23331349
  -V(xc)+E(xc)   XCENC  =      1245.50371309
  PAW double counting   =     25597.31658585   -25698.30765936
  entropy T*S    EENTRO =        -0.00226603
  eigenvalues    EBANDS =     -5259.89124963
  atomic energy  EATOM  =     37525.52423787
  ---------------------------------------------------
  free energy    TOTEN  =      -284.03828098 eV

  energy without entropy =     -284.03601496  energy(sigma->0) =     -284.03714797


--------------------------------------------------------------------------------------------------------




----------------------------------------- Iteration    1(  17)  ---------------------------------------


    POTLOK:  VPU time    1.63: CPU time    1.64
    SETDIJ:  VPU time    0.08: CPU time    0.08
    EDDAV :  VPU time 3866.35: CPU time 3906.40
    DOS   :  VPU time    0.00: CPU time   -0.00
    CHARGE:  VPU time  212.42: CPU time  214.85
    MIXING:  VPU time    0.05: CPU time    0.05
    ------------------------------------------
      LOOP:  VPU time 4080.86: CPU time 4123.37

 eigenvalue-minimisations  : 67600
 total energy-change (2. order) : 0.3395353E-04  (-0.3413890E-05)
 number of electron  360.0000144 magnetization 
 augmentation part   169.5657833 magnetization 

 Broyden mixing:
[...]
     97     -26.9262      2.00000
     98     -26.9251      2.00000
     99     -26.9202      2.00000
    100     -26.9201      2.00000
    101     -26.9059      2.00000
    102     -26.9057      2.00000
    103     -26.8907      2.00000
    104     -26.8905      2.00000
    105     -26.8780      2.00000
    106     -26.8676      2.00000
    107     -26.8633      2.00000
    108     -26.8517      2.00000
    109       0.2422      2.00000
    110       0.6340      2.00000
    111       1.7303      2.00000
    112       1.7307      2.00000
    113       2.0218      2.00000
    114       2.0222      2.00000
    115       2.5950      2.00000
    116       2.5952      2.00000
    117       2.7767      2.00000
    118       2.7768      2.00000
    119       2.8472      2.00000
    120       3.0408      2.00000
    121       3.0410      2.00000
    122       3.0805      2.00000
    123       3.0806      2.00000
    124       3.1725      2.00000
    125       3.7613      2.00000
    126       3.7620      2.00000
    127       3.7862      2.00000
    128       3.7869      2.00000
    129       3.9027      2.00000
    130       3.9035      2.00000
    131       3.9148      2.00000
    132       3.9156      2.00000
    133       3.9853      2.00000
    134       3.9880      2.00000
    135       4.1055      2.00000
    136       4.1060      2.00000
    137       4.1520      2.00000
    138       4.1525      2.00000
    139       4.1530      2.00000
    140       4.1809      2.00000
    141       4.2045      2.00000
    142       4.2153      2.00000
    143       4.4040      2.00000
    144       4.4352      2.00000
    145       4.4782      2.00000
    146       4.4786      2.00000
    147       4.5205      2.00000
    148       4.5209      2.00000
    149       4.6235      2.00000
    150       4.6285      2.00000
    151       4.6819      2.00000
    152       4.6822      2.00000
    153       4.7213      2.00000
    154       4.7218      2.00000
    155       4.7227      2.00000
    156       4.7232      2.00000
    157       4.7274      2.00000
    158       4.7558      2.00000
    159       4.8189      2.00000
    160       4.8235      2.00000
    161       4.8240      2.00000
    162       4.8426      2.00000
    163       4.9263      2.00000
    164       5.0666      2.00000
    165       5.1178      2.00000
    166       5.1186      2.00000
    167       5.2054      2.00000
    168       5.2067      2.00000
    169       5.2517      2.00000
    170       5.2532      2.00000
    171       5.3606      2.00000
    172       5.3621      2.00000
    173       5.4541      2.00000
    174       5.4549      2.00000
    175       5.5420      2.00000
    176       5.5428      2.00000
    177       5.6762      2.00000
    178       5.7794      2.00000
    179       5.8011      2.00000
    180       5.8754      0.45271
    181       5.9374      0.00000
    182       5.9643      0.00000
    183       6.0180      0.00000
    184       6.0268      0.00000
    185       6.0531      0.00000
    186       6.1361      0.00000
    187       6.1374      0.00000
    188       6.1581      0.00000
    189       6.1586      0.00000
    190       6.1744      0.00000
    191       6.2548      0.00000
    192       6.2555      0.00000
    193       6.2701      0.00000
    194       6.2830      0.00000
    195       6.3057      0.00000
    196       6.3068      0.00000
    197       6.3523      0.00000
    198       6.4604      0.00000
    199       6.4608      0.00000
    200       6.4735      0.00000
    201       6.4741      0.00000
    202       6.5849      0.00000
    203       6.6075      0.00000
    204       6.6089      0.00000
    205       6.6097      0.00000
    206       6.6445      0.00000
    207       6.6748      0.00000
    208       6.6757      0.00000
    209       6.7018      0.00000
    210       6.7026      0.00000
    211       6.7208      0.00000
    212       6.7215      0.00000
    213       6.7950      0.00000
    214       6.8013      0.00000
    215       6.8165      0.00000
    216       6.8381      0.00000


--------------------------------------------------------------------------------------------------------


 soft charge-density along one line, spin component           1
         0         1         2         3         4         5         6         7         8         9
 total charge-density along one line
 
 pseudopotential strength for first ion, spin component:           1
-29.049  -0.000  -0.001  12.985   0.000   0.000   0.000  -0.001
 -0.000 -29.102   0.000   0.000  13.024  -0.000  -0.000  -0.000
 -0.001   0.000 -29.049   0.000  -0.000  12.984   0.005  -0.000
 12.985   0.000   0.000  -0.856  -0.000  -0.000   0.000   0.001
  0.000  13.024  -0.000  -0.000  -0.880   0.000   0.000   0.000
  0.000  -0.000  12.984  -0.000   0.000  -0.855  -0.003   0.000
  0.000  -0.000   0.005   0.000   0.000  -0.003  -2.897   0.000
 -0.001  -0.000  -0.000   0.001   0.000   0.000   0.000  -2.922
  0.000  -0.001   0.000  -0.000   0.001  -0.000   0.000  -0.000
 -0.000   0.000  -0.001   0.000   0.000   0.001   0.000  -0.000
  0.006   0.000   0.000  -0.003  -0.000   0.000  -0.000   0.000
 -0.000  -0.000   0.001   0.000   0.000  -0.001   0.521   0.000
 -0.000  -0.000  -0.000   0.000   0.000   0.000   0.000   0.516
  0.000  -0.000   0.000  -0.000   0.000  -0.000   0.000  -0.000
 -0.000  -0.000  -0.000   0.000   0.000   0.000   0.000  -0.000
  0.001   0.000  -0.000  -0.001  -0.000   0.000  -0.000   0.000
  0.000   0.000   0.000  -0.000  -0.000  -0.000   0.000   0.000
 -0.000  -0.000   0.000   0.000   0.000  -0.000  -0.000  -0.000
 total augmentation occupancy for first ion, spin component:           1
  1.976   0.000  -0.000   0.003   0.000  -0.000   0.000   0.000  -0.000  -0.000  -0.016  -0.000  -0.000  -0.000  -0.000   0.006
  0.000   1.976   0.000   0.000   0.001  -0.000  -0.000   0.000   0.000   0.000   0.000  -0.000   0.000  -0.000  -0.000   0.000
 -0.000   0.000   1.976  -0.000  -0.000   0.003  -0.016  -0.000  -0.000   0.000   0.000   0.007  -0.000   0.000  -0.000  -0.000
  0.003   0.000  -0.000   0.187   0.000   0.000   0.001   0.001  -0.000  -0.000  -0.068  -0.001  -0.001   0.000   0.000   0.019
  0.000   0.001  -0.000   0.000   0.172  -0.000  -0.000  -0.000   0.001   0.001   0.000   0.000  -0.000  -0.001  -0.001  -0.000
 -0.000  -0.000   0.003   0.000  -0.000   0.187  -0.068  -0.000   0.000   0.001   0.001   0.019   0.000   0.000  -0.001  -0.001
  0.000  -0.000  -0.016   0.001  -0.000  -0.068   0.593   0.000   0.001   0.000   0.000  -0.270  -0.000  -0.000  -0.000   0.001
  0.000   0.000  -0.000   0.001  -0.000  -0.000   0.000   0.475  -0.000  -0.002   0.000  -0.000  -0.241   0.000   0.001  -0.000
 -0.000   0.000  -0.000  -0.000   0.001   0.000   0.001  -0.000   0.643   0.000  -0.000  -0.000   0.000  -0.282   0.000  -0.000
 -0.000   0.000   0.000  -0.000   0.001   0.001   0.000  -0.002   0.000   0.477   0.000  -0.000   0.001   0.000  -0.242  -0.000
 -0.016   0.000   0.000  -0.068   0.000   0.001   0.000   0.000  -0.000   0.000   0.592   0.001  -0.000  -0.000  -0.000  -0.269
 -0.000  -0.000   0.007  -0.001   0.000   0.019  -0.270  -0.000  -0.000  -0.000   0.001   0.143   0.000   0.000   0.000  -0.001
 -0.000   0.000  -0.000  -0.001  -0.000   0.000  -0.000  -0.241   0.000   0.001  -0.000   0.000   0.139  -0.000  -0.001   0.000
 -0.000  -0.000   0.000   0.000  -0.001   0.000  -0.000   0.000  -0.282   0.000  -0.000   0.000  -0.000   0.144  -0.000   0.000
 -0.000  -0.000  -0.000   0.000  -0.001  -0.001  -0.000   0.001   0.000  -0.242  -0.000   0.000  -0.001  -0.000   0.139   0.000
  0.006   0.000  -0.000   0.019  -0.000  -0.001   0.001  -0.000  -0.000  -0.000  -0.269  -0.001   0.000   0.000   0.000   0.142
 -0.000   0.001   0.001  -0.001   0.002   0.004  -0.003  -0.000   0.045  -0.000   0.001   0.001   0.000  -0.022   0.000  -0.000
  0.000   0.001  -0.000  -0.000  -0.000  -0.000   0.000   0.000   0.013  -0.000   0.000  -0.000  -0.000  -0.005   0.000  -0.000


------------------------ aborting loop because EDIFF is reached ----------------------------------------




--------------------------------------------------------------------------------------------------------


    CHARGE:  VPU time  195.12: CPU time  196.97
    FORLOC:  VPU time    0.27: CPU time    0.27
    FORNL :  VPU time  547.97: CPU time  551.16
    STRESS:  VPU time  801.09: CPU time  806.43
    FORCOR:  VPU time    0.97: CPU time    0.98
    FORHAR:  VPU time    0.36: CPU time    0.36
    MIXING:  VPU time    0.04: CPU time    0.04


--------------------------------------------------------------------------------------------------------



  FREE ENERGIE OF THE ION-ELECTRON SYSTEM (eV)
  ---------------------------------------------------
  free  energy   TOTEN  =      -284.038223 eV

  energy  without entropy=     -284.035946  energy(sigma->0) =     -284.037084
 

  FORCE on cell =-STRESS in cart. coord.  units (eV/reduce length):
  Direction    X        Y        Z        XY       YZ       ZX
  --------------------------------------------------------------------------------------
  Alpha Z   2248.03   2248.03   2248.03
  Ewald    -9745.07  -9757.69  -9347.32    -11.41     -0.00     -0.01
  Hartree   2311.01   2305.21   2476.64     -5.26     -0.00     -0.00
  E(xc)    -1694.57  -1694.57  -1694.12     -0.00      0.00     -0.00
  Local     2548.71   2566.93   2040.45     16.49      0.00      0.01
  n-local   -863.09   -862.89   -846.37      0.17     -0.00     -0.00
  augment   1840.02   1839.78   1813.38     -0.21     -0.00      0.00
  Kinetic   3352.37   3351.83   3307.65     -0.47     -0.00      0.00
  -------------------------------------------------------------------------------------
  Total       -2.60     -3.37     -1.66     -0.69     -0.00      0.00
  in kB       -6.62     -8.60     -4.22     -1.76     -0.00      0.00
  external pressure =       -6.48 kB  Pullay stress =        0.00 kB


 VOLUME and BASIS-vectors are now :
 -----------------------------------------------------------------------------
  energy-cutoff  :      500.00
  volume of cell :      628.63
      direct lattice vectors                 reciprocal lattice vectors
     8.820667100  0.024765440  0.000000000     0.113187820  0.064925977  0.000000000
    -4.388885871  7.651304610  0.000000000    -0.000366362  0.130486516  0.000000000
     0.000000000  0.000000000  9.299549210     0.000000000  0.000000000  0.107532094

  length of vectors
     8.820701866  8.820701867  9.299549210     0.130487030  0.130487030  0.107532094


 FORCES acting on ions
    electron-ion (+dipol)            ewald-force                    non-local-force                 convergence-correction
 -----------------------------------------------------------------------------------------------
   0.237E+01 -.898E-01 0.251E+01   -.237E+01 0.662E-01 -.256E+01   -.459E-01 0.237E-01 0.417E-02   0.313E-04 -.149E-05 0.994E-06
   -.738E+00 -.995E-01 0.406E+00   0.783E+00 0.699E-01 -.403E+00   -.357E-01 0.252E-01 -.588E-03   -.106E-04 -.252E-05 -.213E-05
   -.736E+00 -.892E-01 0.401E+00   0.781E+00 0.699E-01 -.398E+00   -.350E-01 0.225E-01 -.759E-03   -.211E-04 0.109E-04 -.183E-04
   0.177E+00 0.431E+00 0.402E+00   -.135E+00 -.458E+00 -.399E+00   -.385E-01 0.193E-01 -.762E-03   -.620E-05 0.943E-05 -.155E-04
   0.172E+00 -.608E+00 0.398E+00   -.130E+00 0.587E+00 -.396E+00   -.382E-01 0.280E-01 -.787E-03   0.101E-04 -.985E-05 -.948E-05
   -.762E-02 -.919E-01 0.142E+00   0.514E-01 0.675E-01 -.144E+00   -.410E-01 0.238E-01 0.321E-02   -.412E-05 0.996E-06 -.127E-04
   0.184E+00 0.433E+00 0.404E+00   -.139E+00 -.456E+00 -.402E+00   -.416E-01 0.227E-01 -.574E-03   0.279E-05 0.846E-05 -.305E-05
   -.728E-02 -.908E-01 0.144E+00   0.514E-01 0.664E-01 -.144E+00   -.411E-01 0.240E-01 0.132E-02   -.147E-04 0.399E-05 -.186E-04
   0.171E+00 -.615E+00 0.396E+00   -.127E+00 0.589E+00 -.393E+00   -.414E-01 0.254E-01 -.768E-03   0.117E-04 -.193E-04 -.131E-04
   0.272E+00 -.911E-01 -.438E+00   -.232E+00 0.667E-01 0.453E+00   -.411E-01 0.237E-01 -.162E-02   0.155E-04 0.106E-05 -.681E-06
   0.103E+00 -.901E-01 -.198E+00   -.596E-01 0.675E-01 0.199E+00   -.414E-01 0.231E-01 -.124E-02   -.413E-05 -.105E-05 0.222E-05
   0.103E+00 -.935E-01 -.197E+00   -.598E-01 0.675E-01 0.198E+00   -.413E-01 0.246E-01 -.131E-02   -.116E-04 0.858E-05 0.183E-04
   0.181E+00 -.461E-01 -.197E+00   -.138E+00 0.228E-01 0.198E+00   -.416E-01 0.229E-01 -.133E-02   -.474E-05 0.177E-05 0.153E-04
   0.179E+00 -.137E+00 -.196E+00   -.136E+00 0.112E+00 0.197E+00   -.413E-01 0.246E-01 -.144E-02   0.423E-05 -.172E-05 0.944E-05
   0.115E+00 -.918E-01 -.124E+00   -.746E-01 0.675E-01 0.121E+00   -.403E-01 0.237E-01 0.276E-02   0.238E-06 0.110E-05 0.126E-04
   0.180E+00 -.488E-01 -.198E+00   -.138E+00 0.225E-01 0.199E+00   -.414E-01 0.245E-01 -.124E-02   -.128E-05 0.291E-05 0.305E-05
   0.116E+00 -.915E-01 -.121E+00   -.746E-01 0.672E-01 0.121E+00   -.405E-01 0.239E-01 -.802E-03   -.346E-05 0.113E-05 0.186E-04
   0.179E+00 -.134E+00 -.196E+00   -.136E+00 0.111E+00 0.197E+00   -.414E-01 0.233E-01 -.144E-02   0.461E-05 -.132E-04 0.130E-04
   -.643E+00 0.577E+00 -.981E+00   0.609E+00 -.558E+00 0.982E+00   0.441E-01 -.251E-01 0.998E-02   0.940E-05 0.286E-05 -.894E-05
   -.374E+00 0.110E+00 -.183E-01   0.332E+00 -.863E-01 0.187E-01   0.401E-01 -.237E-01 -.601E-03   -.282E-04 0.611E-05 -.239E-05
   0.384E+00 0.204E+00 -.168E-03   -.427E+00 -.180E+00 0.214E-02   0.401E-01 -.248E-01 -.366E-02   0.193E-04 -.201E-05 0.480E-05
   0.192E+00 -.505E+00 -.498E+00   -.234E+00 0.536E+00 0.500E+00   0.419E-01 -.217E-01 0.300E-02   0.175E-04 -.738E-05 0.323E-06
   -.437E+00 -.102E+00 -.170E+00   0.397E+00 0.128E+00 0.175E+00   0.363E-01 -.257E-01 -.640E-02   -.593E-05 -.108E-04 -.712E-05
   -.161E+00 0.128E+00 0.821E-01   0.121E+00 -.104E+00 -.834E-01   0.391E-01 -.230E-01 0.184E-02   -.112E-04 0.118E-04 0.197E-05
   -.201E+00 0.189E+00 -.337E-01   0.159E+00 -.165E+00 0.351E-01   0.412E-01 -.233E-01 -.155E-02   -.129E-04 0.124E-04 -.307E-05
   -.171E+00 -.256E-01 -.356E-02   0.129E+00 0.505E-01 0.293E-02   0.418E-01 -.247E-01 0.391E-03   0.297E-05 -.134E-04 0.134E-05
   -.100E+00 0.248E+00 -.438E-01   0.585E-01 -.223E+00 0.455E-01   0.398E-01 -.226E-01 -.218E-02   0.101E-04 0.379E-06 -.349E-05
   0.381E+00 -.168E-01 -.267E-02   -.424E+00 0.412E-01 0.419E-02   0.398E-01 -.226E-01 -.342E-02   0.145E-04 -.387E-05 0.881E-05
   -.373E+00 0.707E-01 -.191E-01   0.332E+00 -.462E-01 0.196E-01   0.402E-01 -.243E-01 -.656E-03   -.104E-04 0.195E-05 0.226E-05
   -.635E+00 -.394E+00 -.979E+00   0.601E+00 0.423E+00 0.980E+00   0.441E-01 -.224E-01 0.101E-01   -.439E-05 -.320E-05 -.474E-05
   0.197E+00 0.679E+00 -.488E+00   -.240E+00 -.660E+00 0.489E+00   0.418E-01 -.261E-01 0.335E-02   0.361E-05 0.100E-04 -.367E-06
   -.166E+00 0.556E-01 0.790E-01   0.126E+00 -.302E-01 -.804E-01   0.385E-01 -.243E-01 0.197E-02   0.729E-05 0.101E-06 0.735E-05
   -.439E+00 0.288E+00 -.176E+00   0.398E+00 -.264E+00 0.181E+00   0.373E-01 -.219E-01 -.599E-02   -.109E-04 0.969E-05 -.194E-05
   -.167E+00 0.209E+00 -.369E-02   0.125E+00 -.185E+00 0.321E-02   0.417E-01 -.231E-01 0.273E-03   -.337E-05 0.245E-05 0.320E-05
   -.203E+00 -.637E-02 -.332E-01   0.161E+00 0.309E-01 0.344E-01   0.412E-01 -.243E-01 -.138E-02   -.215E-05 -.529E-05 -.130E-05
   -.102E+00 -.638E-01 -.468E-01   0.601E-01 0.883E-01 0.485E-01   0.397E-01 -.251E-01 -.224E-02   0.569E-05 -.121E-04 0.353E-05
 -----------------------------------------------------------------------------------------------
   0.119E-03 -.158E-03 0.173E-04   -.176E-12 0.438E-12 0.279E-12   -.229E-03 0.116E-03 -.363E-03   -.737E-06 0.900E-06 0.275E-06
 
 
 POSITION                                       TOTAL-FORCE (eV/Angst)
 -----------------------------------------------------------------------------------
      0.00679      1.70587      1.16970        -0.043023      0.000089     -0.046630
      2.94013      1.71410      1.16244         0.010004     -0.004413      0.001845
      5.88035      1.72236      1.16244         0.009886      0.003238      0.001849
     -1.46305      4.25628      1.16244         0.003759     -0.008104      0.001843
      1.47717      4.26454      1.16244         0.003593      0.006863      0.001709
      4.41739      4.27279      1.16244         0.002819     -0.000572      0.000849
     -2.92602      6.80672      1.16244         0.003734     -0.000132      0.001835
      0.01421      6.81497      1.16244         0.002974     -0.000405      0.000846
      2.95443      6.82323      1.16244         0.003519     -0.001017      0.001711
     -0.00009      1.70585      5.81222        -0.001434     -0.000724      0.013247
      2.94013      1.71410      5.81222         0.001997      0.000473     -0.000213
      5.88035      1.72236      5.81222         0.002074     -0.001435     -0.000199
     -1.46305      4.25628      5.81222         0.001013     -0.000285     -0.000208
      1.47717      4.26454      5.81222         0.001171     -0.000807     -0.000244
      4.41739      4.27279      5.81222         0.000250     -0.000606     -0.000988
     -2.92602      6.80672      5.81222         0.001012     -0.001863     -0.000213
      0.01421      6.81497      5.81222         0.000405     -0.000419     -0.000988
      2.95443      6.82323      5.81222         0.001086      0.001097     -0.000238
      1.47735      0.85284      3.48733         0.010663     -0.006026      0.011106
      4.41757      0.86110      3.48733        -0.001224      0.000114     -0.000182
      7.35780      0.86935      3.48733        -0.002862     -0.000914     -0.001678
      0.01439      3.40328      3.48733        -0.000605      0.008402      0.004894
      2.95461      3.41153      3.48733        -0.003716     -0.000250     -0.001460
      5.89483      3.41979      3.48733        -0.001093      0.000329      0.000575
     -1.44857      5.95371      3.48733        -0.000534      0.000795     -0.000118
      1.49165      5.96197      3.48733        -0.000603      0.000204     -0.000230
      4.43187      5.97022      3.48733        -0.002182      0.001777     -0.000422
      1.47735      0.85284      8.13711        -0.002996      0.001885     -0.001877
      4.41757      0.86110      8.13711        -0.001163      0.000271     -0.000116
      7.35780      0.86935      8.13711         0.010434      0.006798      0.010905
      0.01439      3.40328      8.13711        -0.000617     -0.007141      0.004614
      2.95461      3.41153      8.13711        -0.001644      0.001044      0.000509
      5.89483      3.41979      8.13711        -0.003211      0.001550     -0.001428
     -1.44857      5.95371      8.13711        -0.000630      0.000662     -0.000191
      1.49165      5.96197      8.13711        -0.000587      0.000187     -0.000196
      4.43187      5.97022      8.13711        -0.002269     -0.000663     -0.000517
 -----------------------------------------------------------------------------------
    total drift:                               -0.000110     -0.000042     -0.000345


--------------------------------------------------------------------------------------------------------



 mean value of Nose-termostat <S>:     1.000 mean value of <T> :     0.000
 mean temperature <T/S>/<1/S>  :     0.000

     LOOP+:  VPU time********: CPU time********
  
  
 General timing and accounting informations for this job:
 ========================================================
  
                  Total CPU time used (sec):   105515.857
                            User time (sec):   102597.757
                          System time (sec):     2918.100
                         Elapsed time (sec):   106635.496
  
                   Maximum memory used (kb):    11685432.
                   Average memory used (kb):           0.
  
                          Minor page faults:      2442110
                          Major page faults:            0
                 Voluntary context switches:         1446
