   32   32    1    1
  0.1501517E+02  0.7832374E-09  0.7832374E-09  0.7832374E-09  0.5000000E-15
  1.000000000000000E-004
  CAR 
 unknown system                          
   96   40   72
 
  0.0000000E+00  0.0000000E+00  0.0000000E+00  0.4629630E-02
   1       -2.7827
   2       -0.3970
   3       -0.3932
   4       -0.3932
   5       -0.3932
   6       -0.3932
   7       -0.3893
   8        1.9456
   9        1.9499
  10        1.9499
  11        1.9518
  12        1.9519
  13        1.9519
  14        1.9519
  15        1.9519
  16        1.9521
  17        1.9539
  18        1.9539
  19        1.9583
  20        4.0442
  21        4.0442
  22        4.0442
  23        4.0442
  24        4.5076
  25        4.5076
  26        4.5076
  27        4.5077
  28        5.8675
  29        5.8675
  30        5.8675
  31        7.3862
  32        7.3862
  33        7.3862
  34        8.0491
  35        8.0491
  36        8.0538
  37        8.0538
  38        8.0539
  39        8.0539
  40        8.0539
  41        8.0539
  42        8.0540
  43        8.0540
  44        8.0586
  45        8.0586
  46        9.0122
  47        9.0166
  48        9.0166
  49        9.0166
  50        9.0166
  51        9.0210
  52       10.2476
  53       10.2476
  54       10.2490
  55       10.2516
  56       10.2518
  57       10.2518
  58       10.2518
  59       10.2519
  60       10.2520
  61       10.2547
  62       10.2561
  63       10.2561
  64       10.6719
  65       10.6732
  66       10.6732
  67       10.6732
  68       10.6732
  69       10.6744
  70       12.0617
  71       12.0648
  72       12.0653
 
  0.1666667E+00  0.0000000E+00  0.0000000E+00  0.9259259E-02
   1       -2.7157
   2       -1.1185
   3       -0.3274
   4       -0.3274
   5       -0.3274
   6       -0.3274
   7        0.4583
   8        1.2402
   9        1.2402
  10        1.2402
  11        1.2402
  12        2.0164
  13        2.0164
  14        2.0164
  15        2.0164
  16        2.7871
  17        2.7871
  18        2.7871
  19        2.7871
  20        3.5379
  21        3.5379
  22        3.5379
  23        3.5379
  24        4.9842
  25        5.1368
  26        5.1368
  27        5.1368
  28        5.1368
  29        5.9281
  30        5.9281
  31        7.1888
  32        7.1888
  33        7.1888
  34        7.1889
  35        7.3847
  36        7.3847
  37        7.4488
  38        7.4488
  39        8.1148
  40        8.1148
  41        8.1148
  42        8.1148
  43        8.3830
  44        8.7738
  45        8.7738
  46        8.8457
  47        8.8457
  48        9.4720
  49        9.4720
  50        9.4720
  51        9.4721
  52        9.5441
  53        9.5441
  54        9.5442
  55        9.5443
  56        9.5795
  57        9.5795
  58        9.5796
  59        9.5796
  60       11.0285
  61       11.0286
  62       11.0470
  63       11.0470
  64       11.0471
  65       11.0471
  66       11.1869
  67       11.1869
  68       11.1870
  69       11.1870
  70       11.3816
  71       11.3816
  72       11.3816
 
  0.3333333E+00  0.0000000E+00  0.0000000E+00  0.9259259E-02
   1       -2.5150
   2       -1.7151
   3       -0.1304
   4       -0.1304
   5       -0.1304
   6       -0.1304
   7        0.6546
   8        0.6546
   9        0.6546
  10        0.6547
  11        1.4326
  12        2.2095
  13        2.2095
  14        2.2095
  15        2.2095
  16        2.9763
  17        2.9763
  18        2.9763
  19        2.9763
  20        3.7224
  21        3.7416
  22        3.7416
  23        3.7416
  24        3.7417
  25        5.9734
  26        5.9734
  27        5.9734
  28        5.9734
  29        6.0658
  30        6.0658
  31        6.0659
  32        6.0659
  33        6.1100
  34        6.1100
  35        6.8379
  36        6.8379
  37        7.6346
  38        7.6346
  39        8.2739
  40        8.2739
  41        8.2741
  42        8.2742
  43        8.2977
  44        8.2978
  45        8.2980
  46        8.2980
  47        8.3368
  48        8.3369
  49        9.0298
  50        9.0298
  51        9.0298
  52        9.0298
  53        9.7604
  54        9.7604
  55        9.9611
  56        9.9611
  57        9.9611
  58        9.9611
  59        9.9853
  60       10.8082
  61       10.8082
  62       10.8082
  63       10.8082
  64       11.7991
  65       11.7991
  66       11.9547
  67       11.9547
  68       11.9652
  69       11.9653
  70       11.9654
  71       11.9654
  72       12.5126
 
  0.5000000E+00  0.0000000E+00  0.0000000E+00  0.4629630E-02
   1       -2.1826
   2       -2.1796
   3        0.1931
   4        0.1964
   5        0.1964
   6        0.1972
   7        0.1973
   8        0.1982
   9        0.1982
  10        0.2015
  11        2.5220
  12        2.5245
  13        2.5287
  14        2.5290
  15        2.5290
  16        2.5298
  17        2.5308
  18        2.5316
  19        2.5316
  20        2.5343
  21        4.8077
  22        4.8077
  23        4.8083
  24        4.8084
  25        4.8087
  26        4.8089
  27        4.8094
  28        4.8094
  29        6.4114
  30        6.4114
  31        6.4147
  32        6.4147
  33        7.1184
  34        7.1184
  35        7.1187
  36        7.1193
  37        7.1194
  38        7.1199
  39        7.1203
  40        7.1203
  41        7.9347
  42        7.9360
  43        7.9377
  44        7.9390
  45        8.6001
  46        8.6001
  47        8.6010
  48        8.6026
  49        8.6027
  50        8.6043
  51        8.6052
  52        8.6052
  53       10.3403
  54       10.3412
  55       10.3412
  56       10.3413
  57       10.3438
  58       10.3440
  59       10.3440
  60       10.3449
  61       10.7964
  62       10.7964
  63       10.7986
  64       10.7986
  65       11.7496
  66       11.7506
  67       12.7359
  68       12.7360
  69       12.7379
  70       12.7380
  71       13.0066
  72       13.0068
 
  0.0000000E+00  0.1666667E+00  0.0000000E+00  0.1851852E-01
   1       -2.7157
   2       -1.1185
   3       -0.3304
   4       -0.3274
   5       -0.3274
   6       -0.3244
   7        0.4583
   8        1.2372
   9        1.2402
  10        1.2402
  11        1.2432
  12        2.0143
  13        2.0151
  14        2.0177
  15        2.0186
  16        2.7841
  17        2.7871
  18        2.7871
  19        2.7901
  20        3.5359
  21        3.5367
  22        3.5392
  23        3.5400
  24        4.9842
  25        5.1347
  26        5.1355
  27        5.1381
  28        5.1389
  29        5.9281
  30        5.9281
  31        7.1855
  32        7.1888
  33        7.1888
  34        7.1921
  35        7.3847
  36        7.3847
  37        7.4488
  38        7.4488
  39        8.1119
  40        8.1148
  41        8.1148
  42        8.1177
  43        8.3831
  44        8.7738
  45        8.7738
  46        8.8457
  47        8.8457
  48        9.4695
  49        9.4707
  50        9.4734
  51        9.4747
  52        9.5413
  53        9.5442
  54        9.5442
  55        9.5470
  56        9.5766
  57        9.5795
  58        9.5796
  59        9.5824
  60       11.0284
  61       11.0286
  62       11.0441
  63       11.0471
  64       11.0472
  65       11.0500
  66       11.1854
  67       11.1869
  68       11.1870
  69       11.1884
  70       11.3802
  71       11.3816
  72       11.3837
 
  0.1666667E+00  0.1666667E+00  0.0000000E+00  0.3703704E-01
   1       -2.6488
   2       -1.0536
   3       -1.0511
   4       -0.2617
   5       -0.2617
   6        0.5219
   7        0.5239
   8        0.5257
   9        1.3034
  10        1.3043
  11        1.3058
  12        1.3068
  13        2.0800
  14        2.0809
  15        2.8474
  16        2.8482
  17        2.8500
  18        2.8504
  19        2.8519
  20        2.8531
  21        3.6158
  22        4.1673
  23        4.1673
  24        4.6372
  25        4.6372
  26        5.0460
  27        5.0468
  28        5.9420
  29        5.9420
  30        5.9887
  31        6.5249
  32        6.5274
  33        7.0899
  34        7.0899
  35        7.4441
  36        7.4469
  37        7.4631
  38        7.4633
  39        7.5104
  40        7.9195
  41        7.9217
  42        8.4430
  43        8.4438
  44        8.7918
  45        8.7928
  46        8.7943
  47        8.7953
  48        8.9047
  49        8.9072
  50        8.9097
  51        9.1240
  52        9.1257
  53        9.6196
  54        9.6224
  55       10.2308
  56       10.2309
  57       10.2707
  58       10.2716
  59       10.2721
  60       10.2732
  61       10.3731
  62       10.3748
  63       10.6992
  64       11.2160
  65       11.2167
  66       11.4879
  67       11.4879
  68       11.7768
  69       11.7789
  70       11.8430
  71       12.1707
  72       12.1709
 
  0.3333333E+00  0.1666667E+00  0.0000000E+00  0.3703704E-01
   1       -2.4482
   2       -1.6487
   3       -0.8542
   4       -0.0662
   5       -0.0648
   6       -0.0633
   7        0.7181
   8        0.7198
   9        0.7211
  10        1.4961
  11        1.4990
  12        1.4995
  13        1.5008
  14        2.2735
  15        2.2735
  16        3.0410
  17        3.0420
  18        3.0424
  19        3.7854
  20        3.7903
  21        3.7906
  22        3.8044
  23        3.8046
  24        4.5619
  25        5.2327
  26        5.2935
  27        5.3883
  28        5.3883
  29        5.9747
  30        6.0234
  31        6.0234
  32        6.1705
  33        6.7590
  34        6.8775
  35        6.8776
  36        6.8987
  37        7.5066
  38        7.5066
  39        7.5909
  40        7.5910
  41        7.6282
  42        7.6921
  43        8.2378
  44        8.2378
  45        8.2738
  46        8.3591
  47        8.6223
  48        9.0792
  49        9.0794
  50        9.0903
  51        9.1823
  52        9.2832
  53        9.3540
  54        9.8205
  55        9.8245
  56       10.0422
  57       10.1316
  58       10.5519
  59       10.8311
  60       10.8311
  61       11.1907
  62       11.1907
  63       11.2035
  64       11.2914
  65       11.5879
  66       11.7100
  67       11.7101
  68       11.8918
  69       12.0165
  70       12.0464
  71       12.6136
  72       12.6202
 
  0.5000000E+00  0.1666667E+00  0.0000000E+00  0.1851852E-01
   1       -2.1159
   2       -2.1129
   3       -0.5262
   4       -0.5231
   5        0.2606
   6        0.2618
   7        0.2636
   8        0.2648
   9        1.0432
  10        1.0463
  11        1.8207
  12        1.8219
  13        1.8238
  14        1.8250
  15        2.5880
  16        2.5891
  17        3.3560
  18        3.3573
  19        3.3591
  20        3.3604
  21        4.1162
  22        4.1172
  23        4.8679
  24        4.8686
  25        4.8690
  26        4.8696
  27        5.5410
  28        5.5442
  29        5.6159
  30        5.6170
  31        6.4336
  32        6.4340
  33        6.4349
  34        6.4351
  35        6.4722
  36        6.4755
  37        7.8045
  38        7.8058
  39        7.8078
  40        7.8090
  41        7.9278
  42        7.9284
  43        7.9293
  44        7.9293
  45        7.9313
  46        7.9345
  47        7.9773
  48        7.9803
  49        8.9099
  50        8.9130
  51        9.3938
  52        9.3972
  53        9.6818
  54        9.6848
  55       10.0878
  56       10.0894
  57       10.8578
  58       10.8599
  59       11.0845
  60       11.0879
  61       11.2410
  62       11.2418
  63       11.2443
  64       11.2451
  65       11.8000
  66       11.8010
  67       12.2237
  68       12.2237
  69       12.2255
  70       12.2255
  71       12.3305
  72       12.3328
 
  0.0000000E+00  0.3333333E+00  0.0000000E+00  0.1851852E-01
   1       -2.5150
   2       -1.7151
   3       -0.1334
   4       -0.1304
   5       -0.1304
   6       -0.1274
   7        0.6516
   8        0.6546
   9        0.6546
  10        0.6576
  11        1.4326
  12        2.2074
  13        2.2083
  14        2.2108
  15        2.2117
  16        2.9741
  17        2.9750
  18        2.9775
  19        2.9784
  20        3.7224
  21        3.7385
  22        3.7416
  23        3.7416
  24        3.7447
  25        5.9702
  26        5.9734
  27        5.9734
  28        5.9766
  29        6.0637
  30        6.0646
  31        6.0672
  32        6.0681
  33        6.1100
  34        6.1100
  35        6.8379
  36        6.8379
  37        7.6346
  38        7.6346
  39        8.2718
  40        8.2728
  41        8.2755
  42        8.2766
  43        8.2948
  44        8.2977
  45        8.2977
  46        8.3006
  47        8.3368
  48        8.3370
  49        9.0269
  50        9.0298
  51        9.0299
  52        9.0328
  53        9.7603
  54        9.7604
  55        9.9585
  56        9.9611
  57        9.9611
  58        9.9637
  59        9.9853
  60       10.8057
  61       10.8082
  62       10.8082
  63       10.8107
  64       11.7990
  65       11.7991
  66       11.9548
  67       11.9549
  68       11.9622
  69       11.9653
  70       11.9653
  71       11.9683
  72       12.5128
 
  0.1666667E+00  0.3333333E+00  0.0000000E+00  0.3703704E-01
   1       -2.4481
   2       -1.6487
   3       -0.8542
   4       -0.0662
   5       -0.0648
   6       -0.0633
   7        0.7181
   8        0.7198
   9        0.7211
  10        1.4963
  11        1.4985
  12        1.4995
  13        1.5011
  14        2.2735
  15        2.2735
  16        3.0402
  17        3.0420
  18        3.0431
  19        3.7854
  20        3.7903
  21        3.7907
  22        3.8044
  23        3.8044
  24        4.5619
  25        5.2327
  26        5.2934
  27        5.3883
  28        5.3883
  29        5.9747
  30        6.0234
  31        6.0235
  32        6.1705
  33        6.7590
  34        6.8776
  35        6.8776
  36        6.8986
  37        7.5066
  38        7.5066
  39        7.5910
  40        7.5910
  41        7.6281
  42        7.6921
  43        8.2378
  44        8.2378
  45        8.2738
  46        8.3591
  47        8.6223
  48        9.0794
  49        9.0794
  50        9.0900
  51        9.1823
  52        9.2832
  53        9.3540
  54        9.8212
  55        9.8238
  56       10.0422
  57       10.1316
  58       10.5519
  59       10.8311
  60       10.8311
  61       11.1907
  62       11.1907
  63       11.2035
  64       11.2914
  65       11.5879
  66       11.7100
  67       11.7101
  68       11.8918
  69       12.0165
  70       12.0464
  71       12.6142
  72       12.6202
 
  0.3333333E+00  0.3333333E+00  0.0000000E+00  0.3703704E-01
   1       -2.2478
   2       -1.4508
   3       -1.4484
   4       -0.6564
   5        0.1318
   6        0.1318
   7        0.9136
   8        0.9145
   9        0.9160
  10        0.9170
  11        1.6899
  12        1.6921
  13        1.6936
  14        1.6946
  15        2.4644
  16        2.4652
  17        3.9751
  18        3.9759
  19        3.9897
  20        3.9905
  21        3.9921
  22        3.9931
  23        4.5363
  24        4.5363
  25        4.7299
  26        4.7324
  27        5.0228
  28        5.0228
  29        5.4954
  30        6.0076
  31        6.0076
  32        6.3524
  33        6.4992
  34        6.4992
  35        7.0317
  36        7.0327
  37        7.0342
  38        7.0354
  39        7.0796
  40        7.0824
  41        7.5911
  42        7.5934
  43        7.8102
  44        7.8108
  45        7.8116
  46        7.8530
  47        8.8990
  48        8.9003
  49        9.5728
  50       10.0018
  51       10.0019
  52       10.0031
  53       10.0043
  54       10.0046
  55       10.0072
  56       10.0593
  57       10.2080
  58       10.2092
  59       10.7075
  60       10.7102
  61       10.7392
  62       10.7410
  63       12.0624
  64       12.0624
  65       12.1758
  66       12.1759
  67       12.2005
  68       12.2024
  69       12.2362
  70       12.2369
  71       12.4421
  72       12.4426
 
  0.5000000E+00  0.3333333E+00  0.0000000E+00  0.1851852E-01
   1       -1.9161
   2       -1.9131
   3       -1.1200
   4       -1.1170
   5        0.4567
   6        0.4579
   7        0.4598
   8        0.4610
   9        1.2381
  10        1.2393
  11        1.2412
  12        1.2424
  13        2.0128
  14        2.0158
  15        2.7802
  16        2.7813
  17        3.5457
  18        3.5468
  19        4.2896
  20        4.2908
  21        4.2923
  22        4.2927
  23        4.2939
  24        4.2954
  25        5.0406
  26        5.0414
  27        5.0415
  28        5.0424
  29        5.8852
  30        5.8853
  31        5.8863
  32        5.8864
  33        6.5258
  34        6.5267
  35        6.6105
  36        6.6114
  37        6.6135
  38        6.6145
  39        6.6542
  40        6.6575
  41        7.3833
  42        7.3866
  43        8.0175
  44        8.0197
  45        8.8570
  46        8.8573
  47        8.8583
  48        8.8586
  49        9.0743
  50        9.0749
  51        9.1451
  52        9.1479
  53       10.3097
  54       10.3131
  55       10.4620
  56       10.4651
  57       11.0388
  58       11.0390
  59       11.0403
  60       11.0404
  61       11.0419
  62       11.0441
  63       11.7784
  64       11.7806
  65       11.7986
  66       11.8018
  67       11.9376
  68       11.9382
  69       12.5077
  70       12.5112
  71       12.7367
  72       12.7380
 
  0.0000000E+00  0.5000000E+00  0.0000000E+00  0.9259259E-02
   1       -2.1811
   2       -2.1811
   3        0.1918
   4        0.1967
   5        0.1973
   6        0.1973
   7        0.1973
   8        0.1973
   9        0.1978
  10        0.2027
  11        2.5228
  12        2.5242
  13        2.5278
  14        2.5281
  15        2.5299
  16        2.5301
  17        2.5306
  18        2.5310
  19        2.5326
  20        2.5346
  21        4.8051
  22        4.8058
  23        4.8086
  24        4.8086
  25        4.8086
  26        4.8086
  27        4.8114
  28        4.8120
  29        6.4130
  30        6.4131
  31        6.4131
  32        6.4131
  33        7.1162
  34        7.1179
  35        7.1180
  36        7.1181
  37        7.1206
  38        7.1207
  39        7.1207
  40        7.1225
  41        7.9368
  42        7.9369
  43        7.9369
  44        7.9369
  45        8.5974
  46        8.6021
  47        8.6026
  48        8.6027
  49        8.6027
  50        8.6027
  51        8.6032
  52        8.6079
  53       10.3382
  54       10.3420
  55       10.3426
  56       10.3426
  57       10.3426
  58       10.3426
  59       10.3432
  60       10.3470
  61       10.7975
  62       10.7975
  63       10.7975
  64       10.7975
  65       11.7501
  66       11.7501
  67       12.7369
  68       12.7369
  69       12.7370
  70       12.7370
  71       13.0053
  72       13.0069
 
  0.1666667E+00  0.5000000E+00  0.0000000E+00  0.1851852E-01
   1       -2.1144
   2       -2.1144
   3       -0.5247
   4       -0.5246
   5        0.2627
   6        0.2627
   7        0.2627
   8        0.2627
   9        1.0448
  10        1.0448
  11        1.8228
  12        1.8228
  13        1.8228
  14        1.8229
  15        2.5885
  16        2.5885
  17        3.3582
  18        3.3582
  19        3.3582
  20        3.3582
  21        4.1167
  22        4.1167
  23        4.8687
  24        4.8687
  25        4.8687
  26        4.8687
  27        5.5426
  28        5.5426
  29        5.6164
  30        5.6164
  31        6.4343
  32        6.4344
  33        6.4344
  34        6.4344
  35        6.4737
  36        6.4738
  37        7.8067
  38        7.8068
  39        7.8068
  40        7.8068
  41        7.9280
  42        7.9288
  43        7.9288
  44        7.9289
  45        7.9327
  46        7.9335
  47        7.9788
  48        7.9788
  49        8.9114
  50        8.9114
  51        9.3955
  52        9.3955
  53        9.6833
  54        9.6833
  55       10.0886
  56       10.0886
  57       10.8588
  58       10.8588
  59       11.0861
  60       11.0862
  61       11.2430
  62       11.2430
  63       11.2431
  64       11.2431
  65       11.8005
  66       11.8005
  67       12.2246
  68       12.2246
  69       12.2246
  70       12.2246
  71       12.3317
  72       12.3317
 
  0.3333333E+00  0.5000000E+00  0.0000000E+00  0.1851852E-01
   1       -1.9146
   2       -1.9146
   3       -1.1185
   4       -1.1185
   5        0.4588
   6        0.4588
   7        0.4588
   8        0.4588
   9        1.2402
  10        1.2403
  11        1.2403
  12        1.2403
  13        2.0143
  14        2.0143
  15        2.7807
  16        2.7807
  17        3.5463
  18        3.5463
  19        4.2910
  20        4.2911
  21        4.2931
  22        4.2931
  23        4.2932
  24        4.2932
  25        5.0415
  26        5.0415
  27        5.0415
  28        5.0415
  29        5.8858
  30        5.8858
  31        5.8858
  32        5.8858
  33        6.5262
  34        6.5262
  35        6.6123
  36        6.6125
  37        6.6125
  38        6.6125
  39        6.6558
  40        6.6560
  41        7.3850
  42        7.3850
  43        8.0186
  44        8.0186
  45        8.8578
  46        8.8578
  47        8.8578
  48        8.8578
  49        9.0746
  50        9.0746
  51        9.1465
  52        9.1465
  53       10.3114
  54       10.3114
  55       10.4635
  56       10.4636
  57       11.0388
  58       11.0390
  59       11.0396
  60       11.0396
  61       11.0436
  62       11.0438
  63       11.7795
  64       11.7795
  65       11.8002
  66       11.8002
  67       11.9379
  68       11.9379
  69       12.5094
  70       12.5095
  71       12.7375
  72       12.7375
 
  0.5000000E+00  0.5000000E+00  0.0000000E+00  0.9259259E-02
   1       -1.5850
   2       -1.5826
   3       -1.5820
   4       -1.5795
   5        0.7812
   6        0.7834
   7        0.7846
   8        0.7849
   9        0.7852
  10        0.7855
  11        0.7867
  12        0.7889
  13        3.0964
  14        3.0981
  15        3.0999
  16        3.1003
  17        3.1004
  18        3.1008
  19        3.1026
  20        3.1043
  21        5.1476
  22        5.1493
  23        5.1500
  24        5.1507
  25        5.1508
  26        5.1513
  27        5.1521
  28        5.1538
  29        5.6509
  30        5.6514
  31        5.6520
  32        5.6531
  33        5.6532
  34        5.6542
  35        5.6549
  36        5.6554
  37        6.9564
  38        6.9592
  39        6.9597
  40        6.9625
  41        7.4745
  42        7.4749
  43        7.4767
  44        7.4772
  45        8.7969
  46        8.7981
  47        8.7990
  48        8.8002
  49        9.8977
  50        9.8984
  51        9.8988
  52        9.8988
  53        9.9001
  54        9.9001
  55        9.9005
  56        9.9012
  57       11.3441
  58       11.3478
  59       11.3496
  60       11.3499
  61       11.3499
  62       11.3503
  63       11.3521
  64       11.3557
  65       12.0674
  66       12.0694
  67       12.0711
  68       12.0711
  69       12.0715
  70       12.0716
  71       12.0733
  72       12.0752
 
  0.0000000E+00  0.1666667E+00  0.1666667E+00  0.1851852E-01
   1       -2.6488
   2       -1.0524
   3       -1.0524
   4       -0.2634
   5       -0.2600
   6        0.5236
   7        0.5236
   8        0.5243
   9        1.3024
  10        1.3044
  11        1.3058
  12        1.3078
  13        2.0805
  14        2.0805
  15        2.8468
  16        2.8484
  17        2.8502
  18        2.8503
  19        2.8517
  20        2.8537
  21        3.6158
  22        4.1673
  23        4.1673
  24        4.6372
  25        4.6373
  26        5.0464
  27        5.0464
  28        5.9402
  29        5.9437
  30        5.9887
  31        6.5261
  32        6.5261
  33        7.0899
  34        7.0899
  35        7.4454
  36        7.4455
  37        7.4631
  38        7.4633
  39        7.5104
  40        7.9206
  41        7.9206
  42        8.4434
  43        8.4434
  44        8.7905
  45        8.7927
  46        8.7944
  47        8.7965
  48        8.9068
  49        8.9068
  50        8.9080
  51        9.1248
  52        9.1249
  53        9.6210
  54        9.6210
  55       10.2309
  56       10.2309
  57       10.2695
  58       10.2702
  59       10.2735
  60       10.2741
  61       10.3740
  62       10.3740
  63       10.6992
  64       11.2164
  65       11.2164
  66       11.4879
  67       11.4880
  68       11.7778
  69       11.7779
  70       11.8431
  71       12.1707
  72       12.1707
 
  0.1666667E+00  0.1666667E+00  0.1666667E+00  0.3703704E-01
   1       -2.5819
   2       -0.9880
   3       -0.9863
   4       -0.9845
   5        0.5856
   6        0.5886
   7        0.5888
   8        0.5896
   9        0.5898
  10        0.5929
  11        2.1415
  12        2.1436
  13        2.1443
  14        2.1449
  15        2.1455
  16        2.1461
  17        2.1483
  18        3.6633
  19        3.6639
  20        3.6645
  21        3.6770
  22        3.6787
  23        3.6806
  24        5.1080
  25        5.1085
  26        5.1090
  27        5.2626
  28        5.2632
  29        5.2638
  30        6.5760
  31        6.5775
  32        6.5789
  33        6.5789
  34        6.5803
  35        6.5818
  36        6.7547
  37        8.0789
  38        8.0793
  39        8.0809
  40        8.0809
  41        8.0825
  42        8.0829
  43        8.1140
  44        8.1158
  45        8.1176
  46        8.5018
  47        8.5024
  48        8.5030
  49        9.5911
  50        9.5921
  51        9.5933
  52        9.5933
  53        9.5945
  54        9.5954
  55        9.9570
  56        9.9584
  57        9.9595
  58        9.9595
  59        9.9606
  60        9.9620
  61       11.0700
  62       11.0710
  63       11.0721
  64       11.6031
  65       11.6041
  66       11.6051
  67       11.8854
  68       11.8857
  69       11.8869
  70       11.8869
  71       11.8881
  72       11.8884
 
  0.3333333E+00  0.1666667E+00  0.1666667E+00  0.3703704E-01
   1       -2.3813
   2       -1.5823
   3       -0.7882
   4       -0.7882
   5        0.0009
   6        0.0009
   7        0.7845
   8        0.7845
   9        0.7852
  10        1.5607
  11        1.5637
  12        1.5642
  13        1.5653
  14        2.3378
  15        2.3378
  16        3.1024
  17        3.1029
  18        3.1055
  19        3.1060
  20        3.8490
  21        3.8660
  22        4.4133
  23        4.6222
  24        4.6223
  25        4.8948
  26        5.2946
  27        5.2946
  28        5.3533
  29        5.3533
  30        6.0345
  31        6.0345
  32        6.1909
  33        6.1909
  34        6.6092
  35        6.6093
  36        6.9098
  37        7.0431
  38        7.0431
  39        7.5627
  40        7.5627
  41        7.6890
  42        8.2869
  43        8.2869
  44        8.3964
  45        8.3965
  46        8.6748
  47        8.6748
  48        8.8635
  49        8.8636
  50        9.0364
  51        9.0364
  52        9.6194
  53        9.6194
  54        9.8833
  55       10.0953
  56       10.2525
  57       10.2526
  58       10.5123
  59       10.5123
  60       11.0427
  61       11.0427
  62       11.2090
  63       11.2090
  64       11.2708
  65       11.2708
  66       11.9888
  67       11.9888
  68       12.3679
  69       12.3679
  70       12.4764
  71       12.4764
  72       12.6595
 
  0.5000000E+00  0.1666667E+00  0.1666667E+00  0.1851852E-01
   1       -2.0493
   2       -2.0463
   3       -0.4614
   4       -0.4593
   5       -0.4584
   6       -0.4563
   7        1.1070
   8        1.1092
   9        1.1093
  10        1.1102
  11        1.1115
  12        1.1129
  13        2.6512
  14        2.6528
  15        2.6568
  16        2.6571
  17        2.6594
  18        2.6605
  19        4.1669
  20        4.1700
  21        4.1786
  22        4.1787
  23        4.1796
  24        4.1798
  25        5.6022
  26        5.6025
  27        5.6054
  28        5.6057
  29        5.6656
  30        5.6658
  31        5.6666
  32        5.6667
  33        5.7597
  34        5.7608
  35        7.1408
  36        7.1429
  37        7.1438
  38        7.1461
  39        7.2420
  40        7.2426
  41        7.2432
  42        7.2439
  43        8.5994
  44        8.6002
  45        8.6027
  46        8.6035
  47        8.7363
  48        8.7376
  49        8.9272
  50        8.9280
  51        8.9301
  52        8.9309
  53       10.1784
  54       10.1789
  55       10.1799
  56       10.1804
  57       10.5931
  58       10.5942
  59       10.5963
  60       10.5973
  61       11.5451
  62       11.5456
  63       11.5468
  64       11.5473
  65       11.8306
  66       11.8313
  67       11.9467
  68       11.9490
  69       11.9501
  70       11.9524
  71       12.9874
  72       13.0116
 
  0.0000000E+00  0.3333333E+00  0.1666667E+00  0.3703704E-01
   1       -2.4481
   2       -1.6487
   3       -0.8542
   4       -0.0670
   5       -0.0647
   6       -0.0625
   7        0.7175
   8        0.7195
   9        0.7220
  10        1.4963
  11        1.4984
  12        1.4991
  13        1.5016
  14        2.2718
  15        2.2753
  16        3.0401
  17        3.0414
  18        3.0438
  19        3.7853
  20        3.7890
  21        3.7922
  22        3.8027
  23        3.8061
  24        4.5619
  25        5.2327
  26        5.2934
  27        5.3866
  28        5.3900
  29        5.9747
  30        6.0217
  31        6.0251
  32        6.1705
  33        6.7589
  34        6.8758
  35        6.8794
  36        6.8987
  37        7.5048
  38        7.5084
  39        7.5891
  40        7.5928
  41        7.6281
  42        7.6921
  43        8.2359
  44        8.2397
  45        8.2738
  46        8.3591
  47        8.6223
  48        9.0775
  49        9.0813
  50        9.0900
  51        9.1823
  52        9.2832
  53        9.3540
  54        9.8216
  55        9.8235
  56       10.0422
  57       10.1316
  58       10.5518
  59       10.8299