 vasp.4.6.28 25Jul05 complex 
 executed on             LinuxIFC date 2016.10.19  18:00:22
 running on    8 nodes
 distr:  one band on    1 nodes,    8 groups


--------------------------------------------------------------------------------------------------------


 INCAR:
 POTCAR:   PAW_PBE Al 04Jan2001                   
 POTCAR:   PAW_PBE Al 04Jan2001                   
   VRHFIN =Al: s2p1                                                             
   LEXCH  = PE                                                                  
   EATOM  =    53.5387 eV,    3.9350 Ry                                         
                                                                                
   TITEL  = PAW_PBE Al 04Jan2001                                                
   LULTRA =        F    use ultrasoft PP ?                                      
   IUNSCR =        1    unscreen: 0-lin 1-nonlin 2-no                           
   RPACOR =    1.500    partial core radius                                     
   POMASS =   26.982; ZVAL   =    3.000    mass and valenz                      
   RCORE  =    1.900    outmost cutoff radius                                   
   RWIGS  =    2.650; RWIGS  =    1.402    wigner-seitz radius (au A)           
   ENMAX  =  240.300; ENMIN  =  180.225 eV                                      
   ICORE  =        2    local potential                                         
   LCOR   =        T    correct aug charges                                     
   LPAW   =        T    paw PP                                                  
   EAUG   =  291.052                                                            
   DEXC   =    -.041                                                            
   RMAX   =    2.974    core radius for proj-oper                               
   RAUG   =    1.300    factor for augmentation sphere                          
   RDEP   =    1.966    radius for radial grids                                 
   QCUT   =   -4.203; QGAM   =    8.405    optimization parameters              
                                                                                
   Description                                                                  
     l     E      TYP  RCUT    TYP  RCUT                                        
     0   .000     23  1.900                                                     
     0   .000     23  1.900                                                     
     1   .000     23  1.900                                                     
     1  1.000     23  1.900                                                     
     2   .000      7  1.900                                                     
  local pseudopotential read in
  partial core-charges read in
  atomic valenz-charges read in
  non local Contribution for L=           0  read in
    real space projection operators read in
  non local Contribution for L=           0  read in
    real space projection operators read in
  non local Contribution for L=           1  read in
    real space projection operators read in
  non local Contribution for L=           1  read in
    real space projection operators read in
    PAW grid and wavefunctions read in
 
   number of l-projection  operators is LMAX  =           4
   number of lm-projection operators is LMMAX =           8
 

 ----------------------------------------------------------------------------- 
|                                                                             |
|  ADVICE TO THIS USER RUNNING 'VASP/VAMP'   (HEAR YOUR MASTER'S VOICE ...):  |
|                                                                             |
|      You have a (more or less) 'large supercell' and for larger cells       |
|      it might be more efficient to use real space projection operators      |
|      So try LREAL= Auto  in the INCAR   file.                               |
|      Mind: If you want to do an extremely accurate calculations keep the    |
|      reciprocal projection scheme          (i.e. LREAL=.FALSE.)             |
|                                                                             |
 ----------------------------------------------------------------------------- 

 PAW_PBE Al 04Jan2001                   :
 energy of atom  1       EATOM=  -53.5387
 kinetic energy error for atom=    0.0003 (will be added to EATOM!!)
 
 EXHCAR: internal setup
 exchange correlation table for  LEXCH =        8
   RHO(1)=    0.500       N(1)  =     2000
   RHO(2)=  100.500       N(2)  =     4000
 
 POSCAR: Al                                      
  positions in direct lattice
  No initial velocities read in
 


--------------------------------------------------------------------------------------------------------


 ion  position               nearest neighbor table
   1  0.251  0.250  0.000-  18 2.76  22 2.76  26 2.76  28 2.76   9 2.77  11 2.77  13 2.77  15 2.77
                            25 2.78  21 2.78  27 2.78  17 2.78
   2  0.750  0.250  0.000-  10 2.77  12 2.77  14 2.77  16 2.77  17 2.77  18 2.77  21 2.77  22 2.77
                            25 2.77  26 2.77  27 2.77  28 2.77
   3  0.250  0.750  0.000-   9 2.77  11 2.77  13 2.77  15 2.77  19 2.77  20 2.77  23 2.77  24 2.77
                            25 2.77  26 2.77  27 2.77  28 2.77
   4  0.750  0.750  0.000-  10 2.77  12 2.77  14 2.77  16 2.77  19 2.77  20 2.77  23 2.77  24 2.77
                            25 2.77  26 2.77  27 2.77  28 2.77
   5  0.250  0.250  0.500-   9 2.77  11 2.77  13 2.77  15 2.77  17 2.77  18 2.77  21 2.77  22 2.77
                            29 2.77  30 2.77  31 2.77  32 2.77
   6  0.750  0.250  0.500-  10 2.77  12 2.77  14 2.77  16 2.77  17 2.77  18 2.77  21 2.77  22 2.77
                            29 2.77  30 2.77  31 2.77  32 2.77
   7  0.250  0.750  0.500-   9 2.77  11 2.77  13 2.77  15 2.77  19 2.77  20 2.77  23 2.77  24 2.77
                            29 2.77  30 2.77  31 2.77  32 2.77
   8  0.750  0.750  0.500-  10 2.77  12 2.77  14 2.77  16 2.77  19 2.77  20 2.77  23 2.77  24 2.77
                            29 2.77  30 2.77  31 2.77  32 2.77
   9  0.250  0.000  0.250-   3 2.77   5 2.77   7 2.77  17 2.77  18 2.77  19 2.77  20 2.77  25 2.77
                            26 2.77  29 2.77  30 2.77   1 2.77
  10  0.750  0.000  0.250-   2 2.77   4 2.77   6 2.77   8 2.77  17 2.77  18 2.77  19 2.77  20 2.77
                            25 2.77  26 2.77  29 2.77  30 2.77
  11  0.250  0.500  0.250-   3 2.77   5 2.77   7 2.77  17 2.77  18 2.77  19 2.77  20 2.77  27 2.77
                            28 2.77  31 2.77  32 2.77   1 2.77
  12  0.750  0.500  0.250-   2 2.77   4 2.77   6 2.77   8 2.77  17 2.77  18 2.77  19 2.77  20 2.77
                            27 2.77  28 2.77  31 2.77  32 2.77
  13  0.250  0.000  0.750-   3 2.77   5 2.77   7 2.77  21 2.77  22 2.77  23 2.77  24 2.77  25 2.77
                            26 2.77  29 2.77  30 2.77   1 2.77
  14  0.750  0.000  0.750-   2 2.77   4 2.77   6 2.77   8 2.77  21 2.77  22 2.77  23 2.77  24 2.77
                            25 2.77  26 2.77  29 2.77  30 2.77
  15  0.250  0.500  0.750-   3 2.77   5 2.77   7 2.77  21 2.77  22 2.77  23 2.77  24 2.77  27 2.77
                            28 2.77  31 2.77  32 2.77   1 2.77
  16  0.750  0.500  0.750-   2 2.77   4 2.77   6 2.77   8 2.77  21 2.77  22 2.77  23 2.77  24 2.77
                            27 2.77  28 2.77  31 2.77  32 2.77
  17  0.000  0.250  0.250-   2 2.77   5 2.77   6 2.77   9 2.77  10 2.77  11 2.77  12 2.77  25 2.77
                            27 2.77  29 2.77  31 2.77   1 2.78
  18  0.500  0.250  0.250-   1 2.76   2 2.77   5 2.77   6 2.77   9 2.77  10 2.77  11 2.77  12 2.77
                            26 2.77  28 2.77  30 2.77  32 2.77
  19  0.000  0.750  0.250-   3 2.77   4 2.77   7 2.77   8 2.77   9 2.77  10 2.77  11 2.77  12 2.77
                            25 2.77  27 2.77  29 2.77  31 2.77
  20  0.500  0.750  0.250-   3 2.77   4 2.77   7 2.77   8 2.77   9 2.77  10 2.77  11 2.77  12 2.77
                            26 2.77  28 2.77  30 2.77  32 2.77
  21  0.000  0.250  0.750-   2 2.77   5 2.77   6 2.77  13 2.77  14 2.77  15 2.77  16 2.77  25 2.77
                            27 2.77  29 2.77  31 2.77   1 2.78
  22  0.500  0.250  0.750-   1 2.76   2 2.77   5 2.77   6 2.77  13 2.77  14 2.77  15 2.77  16 2.77
                            26 2.77  28 2.77  30 2.77  32 2.77
  23  0.000  0.750  0.750-   3 2.77   4 2.77   7 2.77   8 2.77  13 2.77  14 2.77  15 2.77  16 2.77
                            25 2.77  27 2.77  29 2.77  31 2.77
  24  0.500  0.750  0.750-   3 2.77   4 2.77   7 2.77   8 2.77  13 2.77  14 2.77  15 2.77  16 2.77
                            26 2.77  28 2.77  30 2.77  32 2.77
  25  0.000  0.000  0.000-   2 2.77   3 2.77   4 2.77   9 2.77  10 2.77  13 2.77  14 2.77  17 2.77
                            19 2.77  21 2.77  23 2.77   1 2.78
  26  0.500  0.000  0.000-   1 2.76   2 2.77   3 2.77   4 2.77   9 2.77  10 2.77  13 2.77  14 2.77
                            18 2.77  20 2.77  22 2.77  24 2.77
  27  0.000  0.500  0.000-   2 2.77   3 2.77   4 2.77  11 2.77  12 2.77  15 2.77  16 2.77  17 2.77
                            19 2.77  21 2.77  23 2.77   1 2.78
  28  0.500  0.500  0.000-   1 2.76   2 2.77   3 2.77   4 2.77  11 2.77  12 2.77  15 2.77  16 2.77
                            18 2.77  20 2.77  22 2.77  24 2.77
  29  0.000  0.000  0.500-   5 2.77   6 2.77   7 2.77   8 2.77   9 2.77  10 2.77  13 2.77  14 2.77
                            17 2.77  19 2.77  21 2.77  23 2.77
  30  0.500  0.000  0.500-   5 2.77   6 2.77   7 2.77   8 2.77   9 2.77  10 2.77  13 2.77  14 2.77
                            18 2.77  20 2.77  22 2.77  24 2.77
  31  0.000  0.500  0.500-   5 2.77   6 2.77   7 2.77   8 2.77  11 2.77  12 2.77  15 2.77  16 2.77
                            17 2.77  19 2.77  21 2.77  23 2.77
  32  0.500  0.500  0.500-   5 2.77   6 2.77   7 2.77   8 2.77  11 2.77  12 2.77  15 2.77  16 2.77
                            18 2.77  20 2.77  22 2.77  24 2.77
 
  LATTYP: Found a simple cubic cell.
 ALAT       =     7.8323743572
  
  Lattice vectors:
  
 A1 = (   7.8323743572,   0.0000000000,   0.0000000000)
 A2 = (   0.0000000000,   7.8323743572,   0.0000000000)
 A3 = (   0.0000000000,   0.0000000000,   7.8323743572)
 Subroutine PRICEL returns:
 Original cell was already a primitive cell.
 

Analysis of symmetry for initial positions (statically):

 Routine SETGRP: Setting up the symmetry group for a 
 simple cubic supercell.


 Subroutine GETGRP returns: Found  8 space group operations
 (whereof  2 operations were pure point group operations)
 out of a pool of 48 trial point group operations.


The static configuration has the point symmetry C_1h.
 The point group associated with its full space group is C_4v.

Analysis of symmetry for dynamics (positions and initial velocities):

 Subroutine DYNSYM returns: Found  8 space group operations
 (whereof  2 operations were pure point group operations)
 out of a pool of  8 trial space group operations
 (whereof  2 operations were pure point group operations)
 and found also     1 'primitive' translations


The dynamic configuration has the point symmetry C_1h.
 The point group associated with its full space group is C_4v.
 
 
 KPOINTS: Automatic mesh                          

Automatic generation of k-mesh.
 generate k-points for:   6   6   6
 
 Subroutine IBZKPT returns following result:
 ===========================================
 
 Found     40 irreducible k-points:
 
 Following reciprocal coordinates:
            Coordinates               Weight
  0.000000  0.000000  0.000000      1.000000
  0.166667  0.000000  0.000000      2.000000
  0.333333  0.000000  0.000000      2.000000
  0.500000  0.000000  0.000000      1.000000
  0.000000  0.166667  0.000000      4.000000
  0.166667  0.166667  0.000000      8.000000
  0.333333  0.166667  0.000000      8.000000
  0.500000  0.166667  0.000000      4.000000
  0.000000  0.333333  0.000000      4.000000
  0.166667  0.333333  0.000000      8.000000
  0.333333  0.333333  0.000000      8.000000
  0.500000  0.333333  0.000000      4.000000
  0.000000  0.500000  0.000000      2.000000
  0.166667  0.500000  0.000000      4.000000
  0.333333  0.500000  0.000000      4.000000
  0.500000  0.500000  0.000000      2.000000
  0.000000  0.166667  0.166667      4.000000
  0.166667  0.166667  0.166667      8.000000
  0.333333  0.166667  0.166667      8.000000
  0.500000  0.166667  0.166667      4.000000
  0.000000  0.333333  0.166667      8.000000
  0.166667  0.333333  0.166667     16.000000
  0.333333  0.333333  0.166667     16.000000
  0.500000  0.333333  0.166667      8.000000
  0.000000  0.500000  0.166667      4.000000
  0.166667  0.500000  0.166667      8.000000
  0.333333  0.500000  0.166667      8.000000
  0.500000  0.500000  0.166667      4.000000
  0.000000  0.333333  0.333333      4.000000
  0.166667  0.333333  0.333333      8.000000
  0.333333  0.333333  0.333333      8.000000
  0.500000  0.333333  0.333333      4.000000
  0.000000  0.500000  0.333333      4.000000
  0.166667  0.500000  0.333333      8.000000
  0.333333  0.500000  0.333333      8.000000
  0.500000  0.500000  0.333333      4.000000
  0.000000  0.500000  0.500000      1.000000
  0.166667  0.500000  0.500000      2.000000
  0.333333  0.500000  0.500000      2.000000
  0.500000  0.500000  0.500000      1.000000
 
 Following cartesian coordinates:
            Coordinates               Weight
  0.000000  0.000000  0.000000      1.000000
  0.021279  0.000000  0.000000      2.000000
  0.042558  0.000000  0.000000      2.000000
  0.063838  0.000000  0.000000      1.000000
  0.000000  0.021279  0.000000      4.000000
  0.021279  0.021279  0.000000      8.000000
  0.042558  0.021279  0.000000      8.000000
  0.063838  0.021279  0.000000      4.000000
  0.000000  0.042558  0.000000      4.000000
  0.021279  0.042558  0.000000      8.000000
  0.042558  0.042558  0.000000      8.000000
  0.063838  0.042558  0.000000      4.000000
  0.000000  0.063838  0.000000      2.000000
  0.021279  0.063838  0.000000      4.000000
  0.042558  0.063838  0.000000      4.000000
  0.063838  0.063838  0.000000      2.000000
  0.000000  0.021279  0.021279      4.000000
  0.021279  0.021279  0.021279      8.000000
  0.042558  0.021279  0.021279      8.000000
  0.063838  0.021279  0.021279      4.000000
  0.000000  0.042558  0.021279      8.000000
  0.021279  0.042558  0.021279     16.000000
  0.042558  0.042558  0.021279     16.000000
  0.063838  0.042558  0.021279      8.000000
  0.000000  0.063838  0.021279      4.000000
  0.021279  0.063838  0.021279      8.000000
  0.042558  0.063838  0.021279      8.000000
  0.063838  0.063838  0.021279      4.000000
  0.000000  0.042558  0.042558      4.000000
  0.021279  0.042558  0.042558      8.000000
  0.042558  0.042558  0.042558      8.000000
  0.063838  0.042558  0.042558      4.000000
  0.000000  0.063838  0.042558      4.000000
  0.021279  0.063838  0.042558      8.000000
  0.042558  0.063838  0.042558      8.000000
  0.063838  0.063838  0.042558      4.000000
  0.000000  0.063838  0.063838      1.000000
  0.021279  0.063838  0.063838      2.000000
  0.042558  0.063838  0.063838      2.000000
  0.063838  0.063838  0.063838      1.000000
 


--------------------------------------------------------------------------------------------------------




 Dimension of arrays:
   k-Points           NKPTS =     40   number of bands    NBANDS=     72
   number of dos      NEDOS =    301   number of ions     NIONS =     32
   non local maximal  LDIM  =      4   non local SUM 2l+1 LMDIM =      8
   total plane-waves  NPLWV = 216000
   max r-space proj   IRMAX =      1   max aug-charges    IRDMAX=  17694
   dimension x,y,z NGX =    60 NGY =   60 NGZ =   60
   dimension x,y,z NGXF=   120 NGYF=  120 NGZF=  120
   support grid    NGXF=   120 NGYF=  120 NGZF=  120
   ions per type =              32
 NGX,Y,Z   is equivalent  to a cutoff of  12.74, 12.74, 12.74 a.u.
 NGXF,Y,Z  is equivalent  to a cutoff of  25.47, 25.47, 25.47 a.u.


 I would recommend the setting:
   dimension x,y,z NGX =    57 NGY =   57 NGZ =   57
 SYSTEM =  unknown system                          
 POSCAR =  Al                                      

 Startparameter for this run:
   NWRITE =      2    write-flag & timer
   PREC   = accura    medium, high low
   ISTART =      0    job   : 0-new  1-cont  2-samecut
   ICHARG =      2    charge: 1-file 2-atom 10-const
   ISPIN  =      1    spin polarized calculation?
   LNONCOLLINEAR =      F non collinear calculations
   LSORBIT =      F    spin-orbit coupling
   INIWAV =      1    electr: 0-lowe 1-rand  2-diag
   LASPH  =      F    aspherical Exc in radial PAW
   METAGGA=      F    non-selfconsistent MetaGGA calc.

 Electronic Relaxation 1
   ENCUT  =  500.0 eV  36.75 Ry    6.06 a.u.  14.28 14.28 14.28*2*pi/ulx,y,z
   ENINI  =  500.0     initial cutoff
   ENAUG  =  291.1 eV  augmentation charge cutoff
   NELM   =     60;   NELMIN=  2; NELMDL= -5     # of ELM steps 
   EDIFF  = 0.1E-07   stopping-criterion for ELM
   LREAL  =      F    real-space projection
   LCOMPAT=      F    compatible to vasp.4.4
   LREAL_COMPAT= F    compatible to vasp.4.5.1-3
   GGA_COMPAT  = T    GGA compatible to vasp.4.4-vasp.4.6
   LMAXPAW     = -100 max onsite density
   LMAXMIX     =    2 max onsite mixed and CHGCAR
   VOSKOWN=      0    Vosko Wilk Nusair interpolation
   ROPT   =    0.00000
 Ionic relaxation
   EDIFFG = 0.1E-06   stopping-criterion for IOM
   NSW    =      0    number of steps for IOM
   NBLOCK =      1;   KBLOCK =      1    inner block; outer block 
   IBRION =     -1    ionic relax: 0-MD 1-quasi-New 2-CG
   NFREE  =      0    steps in history (QN), initial steepest desc. (CG)
   ISIF   =      2    stress and relaxation
   IWAVPR =     10    prediction:  0-non 1-charg 2-wave 3-comb
   ISYM   =      2    0-nonsym 1-usesym 2-fastsym
   LCORR  =      T    Harris-Foulkes like correction to forces

   POTIM  =   0.50    time-step for ionic-motion
   TEIN   =    0.0    initial temperature
   TEBEG  =    0.0;   TEEND  =   0.0 temperature during run
   SMASS  =  -3.00    Nose mass-parameter (am)
   estimated Nose-frequenzy (Omega)   =  0.10E-29 period in steps =****** mass=  -0.140E-26a.u.
   NPACO  =    256;   APACO  = 16.0  distance and # of slots for P.C.
   PSTRESS=    0.0 pullay stress

  Mass of Ions in am
   POMASS =  26.98
  Ionic Valenz
   ZVAL   =   3.00
  Atomic Wigner-Seitz radii
   RWIGS  =  -1.00
   NELECT =      96.0000    total number of electrons
   NUPDOWN=      -1.0000    fix difference up-down

 DOS related values:
   EMIN   =  10.00;   EMAX   =-10.00  energy-range for DOS
   ISMEAR =     0;   SIGMA  =   0.01  broadening in eV -4-tet -1-fermi 0-gaus

 Electronic relaxation 2 (details)
   IALGO  =     38    algorithm
   LDIAG  =      T    sub-space diagonalisation
   IMIX   =      4    mixing-type and parameters
     AMIX     =   0.40;   BMIX     =  1.00
     AMIX_MAG =   1.60;   BMIX_MAG =  1.00
     AMIN     =   0.10
     WC   =   100.;   INIMIX=   1;  MIXPRE=   1

 Intra band minimization:
   WEIMIN = 0.0000     energy-eigenvalue tresh-hold
   EBREAK =  0.38E-10  absolut break condition
   DEPER  =   0.30     relativ break condition  

   TIME   =   0.10     timestep for ELM

  volume/ion in A,a.u.               =      15.02       101.33
  Fermi-wavevector in a.u.,eV,Ry     =   0.957058 12.462405  0.915961

 Second variation
   LSECVAR=     F    do a second variation
 
 Write flags
   LWAVE  =      F    write WAVECAR
   LCHARG =      F    write CHGCAR
   LVTOT  =      F    write LOCPOT, local potential
   LELF   =      F    write electronic localiz. function (ELF)
   LORBIT =      0    0 simple, 1 ext, 2 COOP (PROOUT)


 Dipole corrections
   IDIPOL =      0    1-x, 2-y, 3-z
   LDIPOL =      F    correct potential



--------------------------------------------------------------------------------------------------------


 Static calculation
 charge density will be updated during run
 non-spin polarized calculation
 Variant of blocked Davidson
 Davidson routine will perform the subspace rotation
 performe sub-space diagonalisation
    after iterative eigenvector-optimisation
 modified Broyden-mixing scheme, WC =      100.0
 initial mixing is a Kerker type mixing with AMIX =  0.4000 and BMIX =      1.0000
 Hartree-type preconditioning will be used
 using additional bands           24
 reciprocal scheme for non local part
 use partial core corrections
 calculate Harris-corrections to forces 
   (improved forces if not selfconsistent)
 use gradient corrections 
 use of overlap-Matrix (Vanderbilt PP)
 Gauss-broadening in eV      SIGMA  =   0.01


--------------------------------------------------------------------------------------------------------


  energy-cutoff  :      500.00
  volume of cell :      480.49
      direct lattice vectors                 reciprocal lattice vectors
     7.832374357  0.000000000  0.000000000     0.127675205  0.000000000  0.000000000
     0.000000000  7.832374357  0.000000000     0.000000000  0.127675205  0.000000000
     0.000000000  0.000000000  7.832374357     0.000000000  0.000000000  0.127675205

  length of vectors
     7.832374357  7.832374357  7.832374357     0.127675205  0.127675205  0.127675205


 
 k-points in units of 2pi/SCALE and weight: Automatic mesh                          
   0.00000000  0.00000000  0.00000000       0.005
   0.02127920  0.00000000  0.00000000       0.009
   0.04255840  0.00000000  0.00000000       0.009
   0.06383760  0.00000000  0.00000000       0.005
   0.00000000  0.02127920  0.00000000       0.019
   0.02127920  0.02127920  0.00000000       0.037
   0.04255840  0.02127920  0.00000000       0.037
   0.06383760  0.02127920  0.00000000       0.019
   0.00000000  0.04255840  0.00000000       0.019
   0.02127920  0.04255840  0.00000000       0.037
   0.04255840  0.04255840  0.00000000       0.037
   0.06383760  0.04255840  0.00000000       0.019
   0.00000000  0.06383760  0.00000000       0.009
   0.02127920  0.06383760  0.00000000       0.019
   0.04255840  0.06383760  0.00000000       0.019
   0.06383760  0.06383760  0.00000000       0.009
   0.00000000  0.02127920  0.02127920       0.019
   0.02127920  0.02127920  0.02127920       0.037
   0.04255840  0.02127920  0.02127920       0.037
   0.06383760  0.02127920  0.02127920       0.019
   0.00000000  0.04255840  0.02127920       0.037
   0.02127920  0.04255840  0.02127920       0.074
   0.04255840  0.04255840  0.02127920       0.074
   0.06383760  0.04255840  0.02127920       0.037
   0.00000000  0.06383760  0.02127920       0.019
   0.02127920  0.06383760  0.02127920       0.037
   0.04255840  0.06383760  0.02127920       0.037
   0.06383760  0.06383760  0.02127920       0.019
   0.00000000  0.04255840  0.04255840       0.019
   0.02127920  0.04255840  0.04255840       0.037
   0.04255840  0.04255840  0.04255840       0.037
   0.06383760  0.04255840  0.04255840       0.019
   0.00000000  0.06383760  0.04255840       0.019
   0.02127920  0.06383760  0.04255840       0.037
   0.04255840  0.06383760  0.04255840       0.037
   0.06383760  0.06383760  0.04255840       0.019
   0.00000000  0.06383760  0.06383760       0.005
   0.02127920  0.06383760  0.06383760       0.009
   0.04255840  0.06383760  0.06383760       0.009
   0.06383760  0.06383760  0.06383760       0.005
 
 k-points in reciprocal lattice and weights: Automatic mesh                          
   0.00000000  0.00000000  0.00000000       0.005
   0.16666667  0.00000000  0.00000000       0.009
   0.33333333  0.00000000  0.00000000       0.009
   0.50000000  0.00000000  0.00000000       0.005
   0.00000000  0.16666667  0.00000000       0.019
   0.16666667  0.16666667  0.00000000       0.037
   0.33333333  0.16666667  0.00000000       0.037
   0.50000000  0.16666667  0.00000000       0.019
   0.00000000  0.33333333  0.00000000       0.019
   0.16666667  0.33333333  0.00000000       0.037
   0.33333333  0.33333333  0.00000000       0.037
   0.50000000  0.33333333  0.00000000       0.019
   0.00000000  0.50000000  0.00000000       0.009
   0.16666667  0.50000000  0.00000000       0.019
   0.33333333  0.50000000  0.00000000       0.019
   0.50000000  0.50000000  0.00000000       0.009
   0.00000000  0.16666667  0.16666667       0.019
   0.16666667  0.16666667  0.16666667       0.037
   0.33333333  0.16666667  0.16666667       0.037
   0.50000000  0.16666667  0.16666667       0.019
   0.00000000  0.33333333  0.16666667       0.037
   0.16666667  0.33333333  0.16666667       0.074
   0.33333333  0.33333333  0.16666667       0.074
   0.50000000  0.33333333  0.16666667       0.037
   0.00000000  0.50000000  0.16666667       0.019
   0.16666667  0.50000000  0.16666667       0.037
   0.33333333  0.50000000  0.16666667       0.037
   0.50000000  0.50000000  0.16666667       0.019
   0.00000000  0.33333333  0.33333333       0.019
   0.16666667  0.33333333  0.33333333       0.037
   0.33333333  0.33333333  0.33333333       0.037
   0.50000000  0.33333333  0.33333333       0.019
   0.00000000  0.50000000  0.33333333       0.019
   0.16666667  0.50000000  0.33333333       0.037
   0.33333333  0.50000000  0.33333333       0.037
   0.50000000  0.50000000  0.33333333       0.019
   0.00000000  0.50000000  0.50000000       0.005
   0.16666667  0.50000000  0.50000000       0.009
   0.33333333  0.50000000  0.50000000       0.009
   0.50000000  0.50000000  0.50000000       0.005
 
 position of ions in fractional coordinates (direct lattice) 
   0.25127675  0.25000000  0.00000000
   0.75000000  0.25000000  0.00000000
   0.25000000  0.75000000  0.00000000
   0.75000000  0.75000000  0.00000000
   0.25000000  0.25000000  0.50000000
   0.75000000  0.25000000  0.50000000
   0.25000000  0.75000000  0.50000000
   0.75000000  0.75000000  0.50000000
   0.25000000  0.00000000  0.25000000
   0.75000000  0.00000000  0.25000000
   0.25000000  0.50000000  0.25000000
   0.75000000  0.50000000  0.25000000
   0.25000000  0.00000000  0.75000000
   0.75000000  0.00000000  0.75000000
   0.25000000  0.50000000  0.75000000
   0.75000000  0.50000000  0.75000000
   0.00000000  0.25000000  0.25000000
   0.50000000  0.25000000  0.25000000
   0.00000000  0.75000000  0.25000000
   0.50000000  0.75000000  0.25000000
   0.00000000  0.25000000  0.75000000
   0.50000000  0.25000000  0.75000000
   0.00000000  0.75000000  0.75000000
   0.50000000  0.75000000  0.75000000
   0.00000000  0.00000000  0.00000000
   0.50000000  0.00000000  0.00000000
   0.00000000  0.50000000  0.00000000
   0.50000000  0.50000000  0.00000000
   0.00000000  0.00000000  0.50000000
   0.50000000  0.00000000  0.50000000
   0.00000000  0.50000000  0.50000000
   0.50000000  0.50000000  0.50000000
 
 position of ions in cartesian coordinates  (Angst):
   1.96809359  1.95809359  0.00000000
   5.87428077  1.95809359  0.00000000
   1.95809359  5.87428077  0.00000000
   5.87428077  5.87428077  0.00000000
   1.95809359  1.95809359  3.91618718
   5.87428077  1.95809359  3.91618718
   1.95809359  5.87428077  3.91618718
   5.87428077  5.87428077  3.91618718
   1.95809359  0.00000000  1.95809359
   5.87428077  0.00000000  1.95809359
   1.95809359  3.91618718  1.95809359
   5.87428077  3.91618718  1.95809359
   1.95809359  0.00000000  5.87428077
   5.87428077  0.00000000  5.87428077
   1.95809359  3.91618718  5.87428077
   5.87428077  3.91618718  5.87428077
   0.00000000  1.95809359  1.95809359
   3.91618718  1.95809359  1.95809359
   0.00000000  5.87428077  1.95809359
   3.91618718  5.87428077  1.95809359
   0.00000000  1.95809359  5.87428077
   3.91618718  1.95809359  5.87428077
   0.00000000  5.87428077  5.87428077
   3.91618718  5.87428077  5.87428077
   0.00000000  0.00000000  0.00000000
   3.91618718  0.00000000  0.00000000
   0.00000000  3.91618718  0.00000000
   3.91618718  3.91618718  0.00000000
   0.00000000  0.00000000  3.91618718
   3.91618718  0.00000000  3.91618718
   0.00000000  3.91618718  3.91618718
   3.91618718  3.91618718  3.91618718
 


--------------------------------------------------------------------------------------------------------


 k-point  1 :  0.00000.00000.0000  plane waves:  12149
 k-point  2 :  0.16670.00000.0000  plane waves:  12177
 k-point  3 :  0.33330.00000.0000  plane waves:  12220
 k-point  4 :  0.50000.00000.0000  plane waves:  12188
 k-point  5 :  0.00000.16670.0000  plane waves:  12177
 k-point  6 :  0.16670.16670.0000  plane waves:  12188
 k-point  7 :  0.33330.16670.0000  plane waves:  12212
 k-point  8 :  0.50000.16670.0000  plane waves:  12184
 k-point  9 :  0.00000.33330.0000  plane waves:  12220
 k-point 10 :  0.16670.33330.0000  plane waves:  12212
 k-point 11 :  0.33330.33330.0000  plane waves:  12208
 k-point 12 :  0.50000.33330.0000  plane waves:  12210
 k-point 13 :  0.00000.50000.0000  plane waves:  12188
 k-point 14 :  0.16670.50000.0000  plane waves:  12184
 k-point 15 :  0.33330.50000.0000  plane waves:  12210
 k-point 16 :  0.50000.50000.0000  plane waves:  12216
 k-point 17 :  0.00000.16670.1667  plane waves:  12188
 k-point 18 :  0.16670.16670.1667  plane waves:  12203
 k-point 19 :  0.33330.16670.1667  plane waves:  12199
 k-point 20 :  0.50000.16670.1667  plane waves:  12196
 k-point 21 :  0.00000.33330.1667  plane waves:  12212
 k-point 22 :  0.16670.33330.1667  plane waves:  12199
 k-point 23 :  0.33330.33330.1667  plane waves:  12206
 k-point 24 :  0.50000.33330.1667  plane waves:  12186
 k-point 25 :  0.00000.50000.1667  plane waves:  12184
 k-point 26 :  0.16670.50000.1667  plane waves:  12196
 k-point 27 :  0.33330.50000.1667  plane waves:  12186
 k-point 28 :  0.50000.50000.1667  plane waves:  12236
 k-point 29 :  0.00000.33330.3333  plane waves:  12208
 k-point 30 :  0.16670.33330.3333  plane waves:  12206
 k-point 31 :  0.33330.33330.3333  plane waves:  12199
 k-point 32 :  0.50000.33330.3333  plane waves:  12190
 k-point 33 :  0.00000.50000.3333  plane waves:  12210
 k-point 34 :  0.16670.50000.3333  plane waves:  12186
 k-point 35 :  0.33330.50000.3333  plane waves:  12190
 k-point 36 :  0.50000.50000.3333  plane waves:  12176
 k-point 37 :  0.00000.50000.5000  plane waves:  12216
 k-point 38 :  0.16670.50000.5000  plane waves:  12236
 k-point 39 :  0.33330.50000.5000  plane waves:  12176
 k-point 40 :  0.50000.50000.5000  plane waves:  12160

 maximum and minimum number of plane-waves per node :  12236 12149

 maximum number of plane-waves:  12236
 maximal index in each direction: 
   IXMAX= 14   IYMAX= 14   IZMAX= 14
   IXMIN=-14   IYMIN=-14   IZMIN=-14

 NGX is ok and might be reduce to  58
 NGY is ok and might be reduce to  58
 NGZ is ok and might be reduce to  58

 parallel 3dFFT wavefunction:
    minimum data exchange during FFTs selected (reduces bandwidth)
 parallel 3dFFT charge:
    minimum data exchange during FFTs selected (reduces bandwidth)

 For storing wavefunctions  562.05 MBYTES are necessary
 For predicting wavefunctions   31.34 MBYTES are necessary
Broyden mixing: mesh for mixing (old mesh)
   NGX = 29   NGY = 29   NGZ = 29
  (NGX  =120   NGY  =120   NGZ  =120)
 gives a total of  24389 points
 initial charge density was supplied:
 charge density of overlapping atoms calculated
 number of electron   96.0000000 magnetization 
 keeping initial charge density in first step


--------------------------------------------------------------------------------------------------------


 Maximum index for augmentation-charges         2196 (set IRDMAX)


--------------------------------------------------------------------------------------------------------


 First call to EWALD:  gamma=   0.226
 Maximum number of real-space cells 3x 3x 3
 Maximum number of reciprocal cells 3x 3x 3

    FEWALD:  VPU time    0.00: CPU time    0.00


----------------------------------------- Iteration    1(   1)  ---------------------------------------


    POTLOK:  VPU time    0.13: CPU time    0.13
    SETDIJ:  VPU time    0.01: CPU time    0.01
    EDDAV :  VPU time   18.68: CPU time   18.76
    DOS   :  VPU time    0.00: CPU time   -0.00
    ------------------------------------------
      LOOP:  VPU time   18.82: CPU time   18.90

 eigenvalue-minimisations  :  5760
 total energy-change (2. order) : 0.1319548E+03  (-0.3341912E+04)
 number of electron   96.0000000 magnetization 
 augmentation part    96.0000000 magnetization 

 Free energy of the ion-electron system (eV)
  ---------------------------------------------------
  alpha Z        PSCENC =        -7.15822495
  Ewald energy   TEWEN  =     -2427.62240689
  -1/2 Hartree   DENC   =        -2.39603461
  -V(xc)+E(xc)   XCENC  =      -834.14650895
  PAW double counting   =      1137.73615723     -115.16745734
  entropy T*S    EENTRO =        -0.00085098
  eigenvalues    EBANDS =       667.48100642
  atomic energy  EATOM  =      1713.22913220
  ---------------------------------------------------
  free energy    TOTEN  =       131.95481212 eV

  energy without entropy =      131.95566310  energy(sigma->0) =      131.95523761


--------------------------------------------------------------------------------------------------------




----------------------------------------- Iteration    1(   2)  ---------------------------------------


    EDDAV :  VPU time   20.93: CPU time   20.97
    DOS   :  VPU time   -0.00: CPU time   -0.00
    ------------------------------------------
      LOOP:  VPU time   20.93: CPU time   20.97

 eigenvalue-minimisations  :  6760
 total energy-change (2. order) :-0.2379393E+03  (-0.2214584E+03)
 number of electron   96.0000000 magnetization 
 augmentation part    96.0000000 magnetization 

 Free energy of the ion-electron system (eV)
  ---------------------------------------------------
  alpha Z        PSCENC =        -7.15822495
  Ewald energy   TEWEN  =     -2427.62240689
  -1/2 Hartree   DENC   =        -2.39603461
  -V(xc)+E(xc)   XCENC  =      -834.14650895
  PAW double counting   =      1137.73615723     -115.16745734
  entropy T*S    EENTRO =        -0.00049702
  eigenvalues    EBANDS =       429.54137984
  atomic energy  EATOM  =      1713.22913220
  ---------------------------------------------------
  free energy    TOTEN  =      -105.98446050 eV

  energy without entropy =     -105.98396348  energy(sigma->0) =     -105.98421199


--------------------------------------------------------------------------------------------------------




----------------------------------------- Iteration    1(   3)  ---------------------------------------


    EDDAV :  VPU time   21.79: CPU time   21.84
    DOS   :  VPU time    0.00: CPU time   -0.00
    ------------------------------------------
      LOOP:  VPU time   21.79: CPU time   21.84

 eigenvalue-minimisations  :  7152
 total energy-change (2. order) :-0.1315625E+02  (-0.1255545E+02)
 number of electron   96.0000000 magnetization 
 augmentation part    96.0000000 magnetization 

 Free energy of the ion-electron system (eV)
  ---------------------------------------------------
  alpha Z        PSCENC =        -7.15822495
  Ewald energy   TEWEN  =     -2427.62240689
  -1/2 Hartree   DENC   =        -2.39603461
  -V(xc)+E(xc)   XCENC  =      -834.14650895
  PAW double counting   =      1137.73615723     -115.16745734
  entropy T*S    EENTRO =        -0.00096685
  eigenvalues    EBANDS =       416.38560363
  atomic energy  EATOM  =      1713.22913220
  ---------------------------------------------------
  free energy    TOTEN  =      -119.14070653 eV

  energy without entropy =     -119.13973968  energy(sigma->0) =     -119.14022311


--------------------------------------------------------------------------------------------------------




----------------------------------------- Iteration    1(   4)  ---------------------------------------


    EDDAV :  VPU time   20.92: CPU time   20.95
    DOS   :  VPU time    0.00: CPU time   -0.00
    ------------------------------------------
      LOOP:  VPU time   20.92: CPU time   20.96

 eigenvalue-minimisations  :  6744
 total energy-change (2. order) :-0.2358370E+00  (-0.2338086E+00)
 number of electron   96.0000000 magnetization 
 augmentation part    96.0000000 magnetization 

 Free energy of the ion-electron system (eV)
  ---------------------------------------------------
  alpha Z        PSCENC =        -7.15822495
  Ewald energy   TEWEN  =     -2427.62240689
  -1/2 Hartree   DENC   =        -2.39603461
  -V(xc)+E(xc)   XCENC  =      -834.14650895
  PAW double counting   =      1137.73615723     -115.16745734
  entropy T*S    EENTRO =        -0.00110821
  eigenvalues    EBANDS =       416.14990800
  atomic energy  EATOM  =      1713.22913220
  ---------------------------------------------------
  free energy    TOTEN  =      -119.37654352 eV

  energy without entropy =     -119.37543531  energy(sigma->0) =     -119.37598942


--------------------------------------------------------------------------------------------------------




----------------------------------------- Iteration    1(   5)  ---------------------------------------


    EDDAV :  VPU time   20.82: CPU time   20.85
    DOS   :  VPU time    0.00: CPU time   -0.00
    CHARGE:  VPU time    1.28: CPU time    1.28
    MIXING:  VPU time    0.00: CPU time    0.00
    ------------------------------------------
      LOOP:  VPU time   22.11: CPU time   22.14

 eigenvalue-minimisations  :  6712
 total energy-change (2. order) :-0.2744287E-02  (-0.2742754E-02)
 number of electron   96.0000001 magnetization 
 augmentation part    -1.1321968 magnetization 

 Broyden mixing:
  rms(total) = 0.55092E+00    rms(broyden)= 0.55092E+00
  rms(prec ) = 0.79262E+00
  weight for this iteration     100.00

 Free energy of the ion-electron system (eV)
  ---------------------------------------------------
  alpha Z        PSCENC =        -7.15822495
  Ewald energy   TEWEN  =     -2427.62240689
  -1/2 Hartree   DENC   =        -2.39603461
  -V(xc)+E(xc)   XCENC  =      -834.14650895
  PAW double counting   =      1137.73615723     -115.16745734
  entropy T*S    EENTRO =        -0.00110806
  eigenvalues    EBANDS =       416.14716357
  atomic energy  EATOM  =      1713.22913220
  ---------------------------------------------------
  free energy    TOTEN  =      -119.37928781 eV

  energy without entropy =     -119.37817974  energy(sigma->0) =     -119.37873378


--------------------------------------------------------------------------------------------------------




----------------------------------------- Iteration    1(   6)  ---------------------------------------


    POTLOK:  VPU time    0.13: CPU time    0.13
    SETDIJ:  VPU time    0.01: CPU time    0.01
    EDDAV :  VPU time   20.81: CPU time   20.85
    DOS   :  VPU time    0.00: CPU time   -0.00
    CHARGE:  VPU time    1.27: CPU time    1.27
    MIXING:  VPU time    0.00: CPU time    0.00
    ------------------------------------------
      LOOP:  VPU time   22.23: CPU time   22.27

 eigenvalue-minimisations  :  6616
 total energy-change (2. order) : 0.4629404E+00  (-0.3853385E-02)
 number of electron   96.0000002 magnetization 
 augmentation part    -1.1467476 magnetization 

 Broyden mixing:
  rms(total) = 0.34249E+00    rms(broyden)= 0.34249E+00
  rms(prec ) = 0.49476E+00
  weight for this iteration     100.00

 eigenvalues of (default mixing * dielectric matrix)
  average eigenvalue GAMMA=   2.6345
  2.6345

 Free energy of the ion-electron system (eV)
  ---------------------------------------------------
  alpha Z        PSCENC =        -7.15822495
  Ewald energy   TEWEN  =     -2427.62240689
  -1/2 Hartree   DENC   =        -2.40910992
  -V(xc)+E(xc)   XCENC  =      -832.77529894
  PAW double counting   =      1143.29715878     -121.04959349
  entropy T*S    EENTRO =        -0.00118037
  eigenvalues    EBANDS =       415.57317621
  atomic energy  EATOM  =      1713.22913220
  ---------------------------------------------------
  free energy    TOTEN  =      -118.91634738 eV

  energy without entropy =     -118.91516700  energy(sigma->0) =     -118.91575719


--------------------------------------------------------------------------------------------------------




----------------------------------------- Iteration    1(   7)  ---------------------------------------


    POTLOK:  VPU time    0.16: CPU time    0.16
    SETDIJ:  VPU time    0.01: CPU time    0.01
    EDDAV :  VPU time   19.83: CPU time   19.88
    DOS   :  VPU time    0.00: CPU time   -0.00
    CHARGE:  VPU time    1.29: CPU time    1.29
    MIXING:  VPU time    0.00: CPU time    0.00
    ------------------------------------------
      LOOP:  VPU time   21.30: CPU time   21.35

 eigenvalue-minimisations  :  6256
 total energy-change (2. order) : 0.3348419E+00  (-0.1192501E-01)
 number of electron   96.0000002 magnetization 
 augmentation part    -1.1767980 magnetization 

 Broyden mixing:
  rms(total) = 0.13967E-01    rms(broyden)= 0.13967E-01
  rms(prec ) = 0.16903E-01
  weight for this iteration     100.00

 eigenvalues of (default mixing * dielectric matrix)
  average eigenvalue GAMMA=   2.5474
  2.5474  2.5474

 Free energy of the ion-electron system (eV)
  ---------------------------------------------------
  alpha Z        PSCENC =        -7.15822495
  Ewald energy   TEWEN  =     -2427.62240689
  -1/2 Hartree   DENC   =        -3.85651648
  -V(xc)+E(xc)   XCENC  =      -830.06954225
  PAW double counting   =      1151.59524574     -129.94177121
  entropy T*S    EENTRO =        -0.00132395
  eigenvalues    EBANDS =       415.24390235
  atomic energy  EATOM  =      1713.22913220
  ---------------------------------------------------
  free energy    TOTEN  =      -118.58150544 eV

  energy without entropy =     -118.58018149  energy(sigma->0) =     -118.58084346


--------------------------------------------------------------------------------------------------------




----------------------------------------- Iteration    1(   8)  ---------------------------------------


    POTLOK:  VPU time    0.13: CPU time    0.13
    SETDIJ:  VPU time    0.01: CPU time    0.01
    EDDAV :  VPU time   21.05: CPU time   21.10
    DOS   :  VPU time    0.00: CPU time   -0.00
    CHARGE:  VPU time    1.32: CPU time    1.32
    MIXING:  VPU time    0.00: CPU time    0.00
    ------------------------------------------
      LOOP:  VPU time   22.51: CPU time   22.56

 eigenvalue-minimisations  :  6824
 total energy-change (2. order) :-0.1991332E-03  (-0.1159483E-03)
 number of electron   96.0000002 magnetization 
 augmentation part    -1.1792098 magnetization 

 Broyden mixing:
  rms(total) = 0.50504E-02    rms(broyden)= 0.50503E-02
  rms(prec ) = 0.65745E-02
  weight for this iteration     100.00

 eigenvalues of (default mixing * dielectric matrix)
  average eigenvalue GAMMA=   2.0857
  1.0183  2.5444  2.6943

 Free energy of the ion-electron system (eV)
  ---------------------------------------------------
  alpha Z        PSCENC =        -7.15822495
  Ewald energy   TEWEN  =     -2427.62240689
  -1/2 Hartree   DENC   =        -3.89540250
  -V(xc)+E(xc)   XCENC  =      -830.02707509
  PAW double counting   =      1151.87915563     -130.25086798
  entropy T*S    EENTRO =        -0.00132634
  eigenvalues    EBANDS =       415.26531135
  atomic energy  EATOM  =      1713.22913220
  ---------------------------------------------------
  free energy    TOTEN  =      -118.58170457 eV

  energy without entropy =     -118.58037823  energy(sigma->0) =     -118.58104140


--------------------------------------------------------------------------------------------------------




----------------------------------------- Iteration    1(   9)  ---------------------------------------


    POTLOK:  VPU time    0.13: CPU time    0.13
    SETDIJ:  VPU time    0.01: CPU time    0.01
    EDDAV :  VPU time   20.47: CPU time   20.51
    DOS   :  VPU time    0.00: CPU time   -0.00
    CHARGE:  VPU time    1.26: CPU time    1.26
    MIXING:  VPU time    0.00: CPU time    0.00
    ------------------------------------------
      LOOP:  VPU time   21.88: CPU time   21.92

 eigenvalue-minimisations  :  6576
 total energy-change (2. order) :-0.3484157E-04  (-0.6046555E-05)
 number of electron   96.0000002 magnetization 
 augmentation part    -1.1800439 magnetization 

 Broyden mixing:
  rms(total) = 0.42720E-03    rms(broyden)= 0.42719E-03
  rms(prec ) = 0.69251E-03
  weight for this iteration     100.00

 eigenvalues of (default mixing * dielectric matrix)
  average eigenvalue GAMMA=   1.8674
  2.7105  2.5267  1.3921  0.8404

 Free energy of the ion-electron system (eV)
  ---------------------------------------------------
  alpha Z        PSCENC =        -7.15822495
  Ewald energy   TEWEN  =     -2427.62240689
  -1/2 Hartree   DENC   =        -3.93210838
  -V(xc)+E(xc)   XCENC  =      -829.98441899
  PAW double counting   =      1151.99706974     -130.38473455
  entropy T*S    EENTRO =        -0.00132653
  eigenvalues    EBANDS =       415.27527893
  atomic energy  EATOM  =      1713.22913220
  ---------------------------------------------------
  free energy    TOTEN  =      -118.58173942 eV

  energy without entropy =     -118.58041288  energy(sigma->0) =     -118.58107615


--------------------------------------------------------------------------------------------------------




----------------------------------------- Iteration    1(  10)  ---------------------------------------


    POTLOK:  VPU time    0.16: CPU time    0.16
    SETDIJ:  VPU time    0.01: CPU time    0.01
    EDDAV :  VPU time   20.99: CPU time   21.03
    DOS   :  VPU time    0.00: CPU time   -0.00
    CHARGE:  VPU time    1.30: CPU time    1.30
    MIXING:  VPU time    0.01: CPU time    0.00
    ------------------------------------------
      LOOP:  VPU time   22.47: CPU time   22.51

 eigenvalue-minimisations  :  6800
 total energy-change (2. order) :-0.9826679E-06  (-0.4185957E-06)
 number of electron   96.0000002 magnetization 
 augmentation part    -1.1801884 magnetization 

 Broyden mixing:
  rms(total) = 0.20425E-03    rms(broyden)= 0.20425E-03
  rms(prec ) = 0.27688E-03
  weight for this iteration     100.00

 eigenvalues of (default mixing * dielectric matrix)
  average eigenvalue GAMMA=   1.8412
  2.6275  2.6275  2.1399  0.9906  0.8203

 Free energy of the ion-electron system (eV)
  ---------------------------------------------------
  alpha Z        PSCENC =        -7.15822495
  Ewald energy   TEWEN  =     -2427.62240689
  -1/2 Hartree   DENC   =        -3.93484190
  -V(xc)+E(xc)   XCENC  =      -829.98127526
  PAW double counting   =      1151.96906503     -130.35699416
  entropy T*S    EENTRO =        -0.00132658
  eigenvalues    EBANDS =       415.27513210
  atomic energy  EATOM  =      1713.22913220
  ---------------------------------------------------
  free energy    TOTEN  =      -118.58174040 eV

  energy without entropy =     -118.58041382  energy(sigma->0) =     -118.58107711


--------------------------------------------------------------------------------------------------------




----------------------------------------- Iteration    1(  11)  ---------------------------------------


    POTLOK:  VPU time    0.13: CPU time    0.13
    SETDIJ:  VPU time    0.01: CPU time    0.01
    EDDAV :  VPU time   20.75: CPU time   20.79
    DOS   :  VPU time    0.00: CPU time   -0.00
    CHARGE:  VPU time    1.28: CPU time    1.28
    MIXING:  VPU time    0.00: CPU time    0.00
    ------------------------------------------
      LOOP:  VPU time   22.17: CPU time   22.21

 eigenvalue-minimisations  :  6696
 total energy-change (2. order) : 0.1635893E-05  (-0.2468198E-07)
 number of electron   96.0000002 magnetization 
 augmentation part    -1.1802147 magnetization 

 Broyden mixing:
  rms(total) = 0.91932E-04    rms(broyden)= 0.91932E-04
  rms(prec ) = 0.10822E-03
  weight for this iteration     100.00

 eigenvalues of (default mixing * dielectric matrix)
  average eigenvalue GAMMA=   1.7920
  2.7078  2.5061  2.5061  0.8046  1.1138  1.1138

 Free energy of the ion-electron system (eV)
  ---------------------------------------------------
  alpha Z        PSCENC =        -7.15822495
  Ewald energy   TEWEN  =     -2427.62240689
  -1/2 Hartree   DENC   =        -3.93453330
  -V(xc)+E(xc)   XCENC  =      -829.98179339
  PAW double counting   =      1151.93580473     -130.32304395
  entropy T*S    EENTRO =        -0.00132665
  eigenvalues    EBANDS =       415.27465343
  atomic energy  EATOM  =      1713.22913220
  ---------------------------------------------------
  free energy    TOTEN  =      -118.58173876 eV

  energy without entropy =     -118.58041212  energy(sigma->0) =     -118.58107544


--------------------------------------------------------------------------------------------------------




----------------------------------------- Iteration    1(  12)  ---------------------------------------


    POTLOK:  VPU time    0.14: CPU time    0.14
    SETDIJ:  VPU time    0.01: CPU time    0.01
    EDDAV :  VPU time   15.33: CPU time   15.36
    DOS   :  VPU time    0.00: CPU time   -0.00
    CHARGE:  VPU time    1.29: CPU time    1.29
    MIXING:  VPU time    0.00: CPU time    0.00
    ------------------------------------------
      LOOP:  VPU time   16.78: CPU time   16.81

 eigenvalue-minimisations  :  4264
 total energy-change (2. order) : 0.1125532E-05  (-0.1566097E-08)
 number of electron   96.0000002 magnetization 
 augmentation part    -1.1802186 magnetization 

 Broyden mixing:
  rms(total) = 0.17121E-04    rms(broyden)= 0.17121E-04
  rms(prec ) = 0.24701E-04
  weight for this iteration     100.00

 eigenvalues of (default mixing * dielectric matrix)
  average eigenvalue GAMMA=   1.7316
  2.6434  2.6434  2.4958  1.4678  0.9808  1.0960  0.7937

 Free energy of the ion-electron system (eV)
  ---------------------------------------------------
  alpha Z        PSCENC =        -7.15822495
  Ewald energy   TEWEN  =     -2427.62240689
  -1/2 Hartree   DENC   =        -3.93470016
  -V(xc)+E(xc)   XCENC  =      -829.98166043
  PAW double counting   =      1151.91720763     -130.30413691
  entropy T*S    EENTRO =        -0.00132666
  eigenvalues    EBANDS =       415.27437853
  atomic energy  EATOM  =      1713.22913220
  ---------------------------------------------------
  free energy    TOTEN  =      -118.58173764 eV

  energy without entropy =     -118.58041097  energy(sigma->0) =     -118.58107430


--------------------------------------------------------------------------------------------------------




----------------------------------------- Iteration    1(  13)  ---------------------------------------


    POTLOK:  VPU time    0.13: CPU time    0.13
    SETDIJ:  VPU time    0.01: CPU time    0.01
    EDDAV :  VPU time   14.17: CPU time   14.20
    DOS   :  VPU time    0.00: CPU time   -0.00
    CHARGE:  VPU time    1.30: CPU time    1.30
    MIXING:  VPU time    0.00: CPU time    0.00
    ------------------------------------------
      LOOP:  VPU time   15.61: CPU time   15.65

 eigenvalue-minimisations  :  3736
 total energy-change (2. order) : 0.2095508E-06  (-0.2800900E-09)
 number of electron   96.0000002 magnetization 
 augmentation part    -1.1802184 magnetization 

 Broyden mixing:
  rms(total) = 0.29034E-05    rms(broyden)= 0.29034E-05
  rms(prec ) = 0.43345E-05
  weight for this iteration     100.00

 eigenvalues of (default mixing * dielectric matrix)
  average eigenvalue GAMMA=   1.6984
  2.7023  2.7023  2.5153  1.6174  1.2182  1.1111  0.9268  0.7935

 Free energy of the ion-electron system (eV)
  ---------------------------------------------------
  alpha Z        PSCENC =        -7.15822495
  Ewald energy   TEWEN  =     -2427.62240689
  -1/2 Hartree   DENC   =        -3.93466249
  -V(xc)+E(xc)   XCENC  =      -829.98172795
  PAW double counting   =      1151.91391272     -130.30077591
  entropy T*S    EENTRO =        -0.00132667
  eigenvalues    EBANDS =       415.27434252
  atomic energy  EATOM  =      1713.22913220
  ---------------------------------------------------
  free energy    TOTEN  =      -118.58173743 eV

  energy without entropy =     -118.58041076  energy(sigma->0) =     -118.58107409


--------------------------------------------------------------------------------------------------------




----------------------------------------- Iteration    1(  14)  ---------------------------------------


    POTLOK:  VPU time    0.13: CPU time    0.13
    SETDIJ:  VPU time    0.01: CPU time    0.01
    EDDAV :  VPU time   13.96: CPU time   13.98
    DOS   :  VPU time    0.00: CPU time   -0.00
    CHARGE:  VPU time    1.26: CPU time    1.26
    MIXING:  VPU time    0.00: CPU time    0.00
    ------------------------------------------
      LOOP:  VPU time   15.36: CPU time   15.39

 eigenvalue-minimisations  :  3656
 total energy-change (2. order) : 0.1273315E-07  (-0.4282763E-10)
 number of electron   96.0000002 magnetization 
 augmentation part    -1.1802198 magnetization 

 Broyden mixing:
  rms(total) = 0.93524E-06    rms(broyden)= 0.93523E-06
  rms(prec ) = 0.12346E-05
  weight for this iteration     100.00

 eigenvalues of (default mixing * dielectric matrix)
  average eigenvalue GAMMA=   1.6657
  2.7006  2.7006  2.5196  1.8538  1.3607  0.7951  1.1290  0.9658  0.9658

 Free energy of the ion-electron system (eV)
  ---------------------------------------------------
  alpha Z        PSCENC =        -7.15822495
  Ewald energy   TEWEN  =     -2427.62240689
  -1/2 Hartree   DENC   =        -3.93467391
  -V(xc)+E(xc)   XCENC  =      -829.98171981
  PAW double counting   =      1151.91367029     -130.30053317
  entropy T*S    EENTRO =        -0.00132667
  eigenvalues    EBANDS =       415.27434550
  atomic energy  EATOM  =      1713.22913220
  ---------------------------------------------------
  free energy    TOTEN  =      -118.58173741 eV

  energy without entropy =     -118.58041074  energy(sigma->0) =     -118.58107408


--------------------------------------------------------------------------------------------------------




----------------------------------------- Iteration    1(  15)  ---------------------------------------


    POTLOK:  VPU time    0.13: CPU time    0.13
    SETDIJ:  VPU time    0.01: CPU time    0.01
    EDDAV :  VPU time   13.84: CPU time   13.87
    DOS   :  VPU time    0.00: CPU time   -0.00
    ------------------------------------------
      LOOP:  VPU time   13.98: CPU time   14.01

 eigenvalue-minimisations  :  3608
 total energy-change (2. order) :-0.7048811E-08  (-0.8134935E-11)
 number of electron   96.0000002 magnetization 
 augmentation part    -1.1802198 magnetization 

 Free energy of the ion-electron system (eV)
  ---------------------------------------------------
  alpha Z        PSCENC =        -7.15822495
  Ewald energy   TEWEN  =     -2427.62240689
  -1/2 Hartree   DENC   =        -3.93467162
  -V(xc)+E(xc)   XCENC  =      -829.98172479
  PAW double counting   =      1151.91378233     -130.30064786
  entropy T*S    EENTRO =        -0.00132667
  eigenvalues    EBANDS =       415.27435084
  atomic energy  EATOM  =      1713.22913220
  ---------------------------------------------------
  free energy    TOTEN  =      -118.58173742 eV

  energy without entropy =     -118.58041075  energy(sigma->0) =     -118.58107409


--------------------------------------------------------------------------------------------------------




 average (electrostatic) potential at core
  the test charge radii are     1.0406
  (the norm of the test charge is              1.0000)
       1 -71.4756       2 -71.4757       3 -71.4757       4 -71.4757       5 -71.4757
       6 -71.4757       7 -71.4757       8 -71.4757       9 -71.4757      10 -71.4757
      11 -71.4757      12 -71.4757      13 -71.4757      14 -71.4757      15 -71.4757
      16 -71.4757      17 -71.4762      18 -71.4751      19 -71.4757      20 -71.4757
      21 -71.4762      22 -71.4751      23 -71.4757      24 -71.4757      25 -71.4762
      26 -71.4751      27 -71.4762      28 -71.4751      29 -71.4757      30 -71.4757
      31 -71.4757      32 -71.4757
 
 
 
 E-fermi :   9.0095     XC(G=0): -10.5431     alpha+bet :-16.3475
   add alpha+bet to get absolut eigen values

 k-point   1 :       0.0000    0.0000    0.0000
  band No.  band energies     occupation 
      1      -2.7827      2.00000
      2      -0.3970      2.00000
      3      -0.3932      2.00000
      4      -0.3932      2.00000
      5      -0.3932      2.00000
      6      -0.3932      2.00000
      7      -0.3893      2.00000
      8       1.9456      2.00000
      9       1.9499      2.00000
     10       1.9499      2.00000
     11       1.9518      2.00000
     12       1.9519      2.00000
     13       1.9519      2.00000
     14       1.9519      2.00000
     15       1.9519      2.00000
     16       1.9521      2.00000
     17       1.9539      2.00000
     18       1.9539      2.00000
     19       1.9583      2.00000
     20       4.0442      2.00000
     21       4.0442      2.00000
     22       4.0442      2.00000
     23       4.0442      2.00000
     24       4.5076      2.00000
     25       4.5076      2.00000
     26       4.5076      2.00000
     27       4.5077      2.00000
     28       5.8675      2.00000
     29       5.8675      2.00000
     30       5.8675      2.00000
     31       7.3862      2.00000
     32       7.3862      2.00000
     33       7.3862      2.00000
     34       8.0491      2.00000
     35       8.0491      2.00000
     36       8.0538      2.00000
     37       8.0538      2.00000
     38       8.0539      2.00000
     39       8.0539      2.00000
     40       8.0539      2.00000
     41       8.0539      2.00000
     42       8.0540      2.00000
     43       8.0540      2.00000
     44       8.0586      2.00000
     45       8.0586      2.00000
     46       9.0122      0.69664
     47       9.0166      0.31536
     48       9.0166      0.31478
     49       9.0166      0.31428
     50       9.0166      0.31428
     51       9.0210      0.10482
     52      10.2476      0.00000
     53      10.2476      0.00000
     54      10.2490      0.00000
     55      10.2516      0.00000
     56      10.2518      0.00000
     57      10.2518      0.00000
     58      10.2518      0.00000
     59      10.2519      0.00000
     60      10.2520      0.00000
     61      10.2547      0.00000
     62      10.2561      0.00000
     63      10.2561      0.00000
     64      10.6719      0.00000
     65      10.6732      0.00000
     66      10.6732      0.00000
     67      10.6732      0.00000
     68      10.6732      0.00000
     69      10.6744      0.00000
     70      12.0617      0.00000
     71      12.0648      0.00000
     72      12.0653      0.00000

 k-point   2 :       0.1667    0.0000    0.0000
  band No.  band energies     occupation 
      1      -2.7157      2.00000
      2      -1.1185      2.00000
      3      -0.3274      2.00000
      4      -0.3274      2.00000
      5      -0.3274      2.00000
      6      -0.3274      2.00000
      7       0.4583      2.00000
      8       1.2402      2.00000
      9       1.2402      2.00000
     10       1.2402      2.00000
     11       1.2402      2.00000
     12       2.0164      2.00000
     13       2.0164      2.00000
     14       2.0164      2.00000
     15       2.0164      2.00000
     16       2.7871      2.00000
     17       2.7871      2.00000
     18       2.7871      2.00000
     19       2.7871      2.00000
     20       3.5379      2.00000
     21       3.5379      2.00000
     22       3.5379      2.00000
     23       3.5379      2.00000
     24       4.9842      2.00000
     25       5.1368      2.00000
     26       5.1368      2.00000
     27       5.1368      2.00000
     28       5.1368      2.00000
     29       5.9281      2.00000
     30       5.9281      2.00000
     31       7.1888      2.00000
     32       7.1888      2.00000
     33       7.1888      2.00000
     34       7.1889      2.00000
     35       7.3847      2.00000
     36       7.3847      2.00000
     37       7.4488      2.00000
     38       7.4488      2.00000
     39       8.1148      2.00000
     40       8.1148      2.00000
     41       8.1148      2.00000
     42       8.1148      2.00000
     43       8.3830      2.00000
     44       8.7738      2.00000
     45       8.7738      2.00000
     46       8.8457      2.00000
     47       8.8457      2.00000
     48       9.4720      0.00000
     49       9.4720      0.00000
     50       9.4720      0.00000
     51       9.4721      0.00000
     52       9.5441      0.00000
     53       9.5441      0.00000
     54       9.5442      0.00000
     55       9.5443      0.00000
     56       9.5795      0.00000
     57       9.5795      0.00000
     58       9.5796      0.00000
     59       9.5796      0.00000
     60      11.0285      0.00000
     61      11.0286      0.00000
     62      11.0470      0.00000
     63      11.0470      0.00000
     64      11.0471      0.00000
     65      11.0471      0.00000
     66      11.1869      0.00000
     67      11.1869      0.00000
     68      11.1870      0.00000
     69      11.1870      0.00000
     70      11.3816      0.00000
     71      11.3816      0.00000
     72      11.3816      0.00000

 k-point   3 :       0.3333    0.0000    0.0000
  band No.  band energies     occupation 
      1      -2.5150      2.00000
      2      -1.7151      2.00000
      3      -0.1304      2.00000
      4      -0.1304      2.00000
      5      -0.1304      2.00000
      6      -0.1304      2.00000
      7       0.6546      2.00000
      8       0.6546      2.00000
      9       0.6546      2.00000
     10       0.6547      2.00000
     11       1.4326      2.00000
     12       2.2095      2.00000
     13       2.2095      2.00000
     14       2.2095      2.00000
     15       2.2095      2.00000
     16       2.9763      2.00000
     17       2.9763      2.00000
     18       2.9763      2.00000
     19       2.9763      2.00000
     20       3.7224      2.00000
     21       3.7416      2.00000
     22       3.7416      2.00000
     23       3.7416      2.00000
     24       3.7417      2.00000
     25       5.9734      2.00000
     26       5.9734      2.00000
     27       5.9734      2.00000
     28       5.9734      2.00000
     29       6.0658      2.00000
     30       6.0658      2.00000
     31       6.0659      2.00000
     32       6.0659      2.00000
     33       6.1100      2.00000
     34       6.1100      2.00000
     35       6.8379      2.00000
     36       6.8379      2.00000
     37       7.6346      2.00000
     38       7.6346      2.00000
     39       8.2739      2.00000
     40       8.2739      2.00000
     41       8.2741      2.00000
     42       8.2742      2.00000
     43       8.2977      2.00000
     44       8.2978      2.00000
     45       8.2980      2.00000
     46       8.2980      2.00000
     47       8.3368      2.00000
     48       8.3369      2.00000
     49       9.0298      0.00403
     50       9.0298      0.00400
     51       9.0298      0.00400
     52       9.0298      0.00399
     53       9.7604      0.00000
     54       9.7604      0.00000
     55       9.9611      0.00000
     56       9.9611      0.00000
     57       9.9611      0.00000
     58       9.9611      0.00000
     59       9.9853      0.00000
     60      10.8082      0.00000
     61      10.8082      0.00000
     62      10.8082      0.00000
     63      10.8082      0.00000
     64      11.7991      0.00000
     65      11.7991      0.00000
     66      11.9547      0.00000
     67      11.9547      0.00000
     68      11.9652      0.00000
     69      11.9653      0.00000
     70      11.9654      0.00000
     71      11.9654      0.00000
     72      12.5126      0.00000

 k-point   4 :       0.5000    0.0000    0.0000
  band No.  band energies     occupation 
      1      -2.1826      2.00000
      2      -2.1796      2.00000
      3       0.1931      2.00000
      4       0.1964      2.00000
      5       0.1964      2.00000
      6       0.1972      2.00000
      7       0.1973      2.00000
      8       0.1982      2.00000
      9       0.1982      2.00000
     10       0.2015      2.00000
     11       2.5220      2.00000
     12       2.5245      2.00000
     13       2.5287      2.00000
     14       2.5290      2.00000
     15       2.5290      2.00000
     16       2.5298      2.00000
     17       2.5308      2.00000
     18       2.5316      2.00000
     19       2.5316      2.00000
     20       2.5343      2.00000
     21       4.8077      2.00000
     22       4.8077      2.00000
     23       4.8083      2.00000
     24       4.8084      2.00000
     25       4.8087      2.00000
     26       4.8089      2.00000
     27       4.8094      2.00000
     28       4.8094      2.00000
     29       6.4114      2.00000
     30       6.4114      2.00000
     31       6.4147      2.00000
     32       6.4147      2.00000
     33       7.1184      2.00000
     34       7.1184      2.00000
     35       7.1187      2.00000
     36       7.1193      2.00000
     37       7.1194      2.00000
     38       7.1199      2.00000
     39       7.1203      2.00000
     40       7.1203      2.00000
     41       7.9347      2.00000
     42       7.9360      2.00000
     43       7.9377      2.00000
     44       7.9390      2.00000
     45       8.6001      2.00000
     46       8.6001      2.00000
     47       8.6010      2.00000
     48       8.6026      2.00000
     49       8.6027      2.00000
     50       8.6043      2.00000
     51       8.6052      2.00000
     52       8.6052      2.00000
     53      10.3403      0.00000
     54      10.3412      0.00000
     55      10.3412      0.00000
     56      10.3413      0.00000
     57      10.3438      0.00000
     58      10.3440      0.00000
     59      10.3440      0.00000
     60      10.3449      0.00000
     61      10.7964      0.00000
     62      10.7964      0.00000
     63      10.7986      0.00000
     64      10.7986      0.00000
     65      11.7496      0.00000
     66      11.7506      0.00000
     67      12.7359      0.00000
     68      12.7360      0.00000
     69      12.7379      0.00000
     70      12.7380      0.00000
     71      13.0066      0.00000
     72      13.0068      0.00000

 k-point   5 :       0.0000    0.1667    0.0000
  band No.  band energies     occupation 
      1      -2.7157      2.00000
      2      -1.1185      2.00000
      3      -0.3304      2.00000
      4      -0.3274      2.00000
      5      -0.3274      2.00000
      6      -0.3244      2.00000
      7       0.4583      2.00000
      8       1.2372      2.00000
      9       1.2402      2.00000
     10       1.2402      2.00000
     11       1.2432      2.00000
     12       2.0143      2.00000
     13       2.0151      2.00000
     14       2.0177      2.00000
     15       2.0186      2.00000
     16       2.7841      2.00000
     17       2.7871      2.00000
     18       2.7871      2.00000
     19       2.7901      2.00000
     20       3.5359      2.00000
     21       3.5367      2.00000
     22       3.5392      2.00000
     23       3.5400      2.00000
     24       4.9842      2.00000
     25       5.1347      2.00000
     26       5.1355      2.00000
     27       5.1381      2.00000
     28       5.1389      2.00000
     29       5.9281      2.00000
     30       5.9281      2.00000
     31       7.1855      2.00000
     32       7.1888      2.00000
     33       7.1888      2.00000
     34       7.1921      2.00000
     35       7.3847      2.00000
     36       7.3847      2.00000
     37       7.4488      2.00000
     38       7.4488      2.00000
     39       8.1119      2.00000
     40       8.1148      2.00000
     41       8.1148      2.00000
     42       8.1177      2.00000
     43       8.3831      2.00000
     44       8.7738      2.00000
     45       8.7738      2.00000
     46       8.8457      2.00000
     47       8.8457      2.00000
     48       9.4695      0.00000
     49       9.4707      0.00000
     50       9.4734      0.00000
     51       9.4747      0.00000
     52       9.5413      0.00000
     53       9.5442      0.00000
     54       9.5442      0.00000
     55       9.5470      0.00000
     56       9.5766      0.00000
     57       9.5795      0.00000
     58       9.5796      0.00000
     59       9.5824      0.00000
     60      11.0284      0.00000
     61      11.0286      0.00000
     62      11.0441      0.00000
     63      11.0471      0.00000
     64      11.0472      0.00000
     65      11.0500      0.00000
     66      11.1854      0.00000
     67      11.1869      0.00000
     68      11.1870      0.00000
     69      11.1884      0.00000
     70      11.3802      0.00000
     71      11.3816      0.00000
     72      11.3837      0.00000

 k-point   6 :       0.1667    0.1667    0.0000
  band No.  band energies     occupation 
      1      -2.6488      2.00000
      2      -1.0536      2.00000
      3      -1.0511      2.00000
      4      -0.2617      2.00000
      5      -0.2617      2.00000
      6       0.5219      2.00000
      7       0.5239      2.00000
      8       0.5257      2.00000
      9       1.3034      2.00000
     10       1.3043      2.00000
     11       1.3058      2.00000
     12       1.3068      2.00000
     13       2.0800      2.00000
     14       2.0809      2.00000
     15       2.8474      2.00000
     16       2.8482      2.00000
     17       2.8500      2.00000
     18       2.8504      2.00000
     19       2.8519      2.00000
     20       2.8531      2.00000
     21       3.6158      2.00000
     22       4.1673      2.00000
     23       4.1673      2.00000
     24       4.6372      2.00000
     25       4.6372      2.00000
     26       5.0460      2.00000
     27       5.0468      2.00000
     28       5.9420      2.00000
     29       5.9420      2.00000
     30       5.9887      2.00000
     31       6.5249      2.00000
     32       6.5274      2.00000
     33       7.0899      2.00000
     34       7.0899      2.00000
     35       7.4441      2.00000
     36       7.4469      2.00000
     37       7.4631      2.00000
     38       7.4633      2.00000
     39       7.5104      2.00000
     40       7.9195      2.00000
     41       7.9217      2.00000
     42       8.4430      2.00000
     43       8.4438      2.00000
     44       8.7918      2.00000
     45       8.7928      2.00000
     46       8.7943      2.00000
     47       8.7953      2.00000
     48       8.9047      2.00000
     49       8.9072      2.00000
     50       8.9097      2.00000
     51       9.1240      0.00000
     52       9.1257      0.00000
     53       9.6196      0.00000
     54       9.6224      0.00000
     55      10.2308      0.00000
     56      10.2309      0.00000
     57      10.2707      0.00000
     58      10.2716      0.00000
     59      10.2721      0.00000
     60      10.2732      0.00000
     61      10.3731      0.00000
     62      10.3748      0.00000
     63      10.6992      0.00000
     64      11.2160      0.00000
     65      11.2167      0.00000
     66      11.4879      0.00000
     67      11.4879      0.00000
     68      11.7768      0.00000
     69      11.7789      0.00000
     70      11.8430      0.00000
     71      12.1707      0.00000
     72      12.1709      0.00000

 k-point   7 :       0.3333    0.1667    0.0000
  band No.  band energies     occupation 
      1      -2.4482      2.00000
      2      -1.6487      2.00000
      3      -0.8542      2.00000
      4      -0.0662      2.00000
      5      -0.0648      2.00000
      6      -0.0633      2.00000
      7       0.7181      2.00000
      8       0.7198      2.00000
      9       0.7211      2.00000
     10       1.4961      2.00000
     11       1.4990      2.00000
     12       1.4995      2.00000
     13       1.5008      2.00000
     14       2.2735      2.00000
     15       2.2735      2.00000
     16       3.0410      2.00000
     17       3.0420      2.00000
     18       3.0424      2.00000
     19       3.7854      2.00000
     20       3.7903      2.00000
     21       3.7906      2.00000
     22       3.8044      2.00000
     23       3.8046      2.00000
     24       4.5619      2.00000
     25       5.2327      2.00000
     26       5.2935      2.00000
     27       5.3883      2.00000
     28       5.3883      2.00000
     29       5.9747      2.00000
     30       6.0234      2.00000
     31       6.0234      2.00000
     32       6.1705      2.00000
     33       6.7590      2.00000
     34       6.8775      2.00000
     35       6.8776      2.00000
     36       6.8987      2.00000
     37       7.5066      2.00000
     38       7.5066      2.00000
     39       7.5909      2.00000
     40       7.5910      2.00000
     41       7.6282      2.00000
     42       7.6921      2.00000
     43       8.2378      2.00000
     44       8.2378      2.00000
     45       8.2738      2.00000
     46       8.3591      2.00000
     47       8.6223      2.00000
     48       9.0792      0.00000
     49       9.0794      0.00000
     50       9.0903      0.00000
     51       9.1823      0.00000
     52       9.2832      0.00000
     53       9.3540      0.00000
     54       9.8205      0.00000
     55       9.8245      0.00000
     56      10.0422      0.00000
     57      10.1316      0.00000
     58      10.5519      0.00000
     59      10.8311      0.00000
     60      10.8311      0.00000
     61      11.1907      0.00000
     62      11.1907      0.00000
     63      11.2035      0.00000
     64      11.2914      0.00000
     65      11.5879      0.00000
     66      11.7100      0.00000
     67      11.7101      0.00000
     68      11.8918      0.00000
     69      12.0165      0.00000
     70      12.0464      0.00000
     71      12.6136      0.00000
     72      12.6202      0.00000

 k-point   8 :       0.5000    0.1667    0.0000
  band No.  band energies     occupation 
      1      -2.1159      2.00000
      2      -2.1129      2.00000
      3      -0.5262      2.00000
      4      -0.5231      2.00000
      5       0.2606      2.00000
      6       0.2618      2.00000
      7       0.2636      2.00000
      8       0.2648      2.00000
      9       1.0432      2.00000
     10       1.0463      2.00000
     11       1.8207      2.00000
     12       1.8219      2.00000
     13       1.8238      2.00000
     14       1.8250      2.00000
     15       2.5880      2.00000
     16       2.5891      2.00000
     17       3.3560      2.00000
     18       3.3573      2.00000
     19       3.3591      2.00000
     20       3.3604      2.00000
     21       4.1162      2.00000
     22       4.1172      2.00000
     23       4.8679      2.00000
     24       4.8686      2.00000
     25       4.8690      2.00000
     26       4.8696      2.00000
     27       5.5410      2.00000
     28       5.5442      2.00000
     29       5.6159      2.00000
     30       5.6170      2.00000
     31       6.4336      2.00000
     32       6.4340      2.00000
     33       6.4349      2.00000
     34       6.4351      2.00000
     35       6.4722      2.00000
     36       6.4755      2.00000
     37       7.8045      2.00000
     38       7.8058      2.00000
     39       7.8078      2.00000
     40       7.8090      2.00000
     41       7.9278      2.00000
     42       7.9284      2.00000
     43       7.9293      2.00000
     44       7.9293      2.00000
     45       7.9313      2.00000
     46       7.9345      2.00000
     47       7.9773      2.00000
     48       7.9803      2.00000
     49       8.9099      2.00000
     50       8.9130      2.00000
     51       9.3938      0.00000
     52       9.3972      0.00000
     53       9.6818      0.00000
     54       9.6848      0.00000
     55      10.0878      0.00000
     56      10.0894      0.00000
     57      10.8578      0.00000
     58      10.8599      0.00000
     59      11.0845      0.00000
     60      11.0879      0.00000
     61      11.2410      0.00000
     62      11.2418      0.00000
     63      11.2443      0.00000
     64      11.2451      0.00000
     65      11.8000      0.00000
     66      11.8010      0.00000
     67      12.2237      0.00000
     68      12.2237      0.00000
     69      12.2255      0.00000
     70      12.2255      0.00000
     71      12.3305      0.00000
     72      12.3328      0.00000

 k-point   9 :       0.0000    0.3333    0.0000
  band No.  band energies     occupation 
      1      -2.5150      2.00000
      2      -1.7151      2.00000
      3      -0.1334      2.00000
      4      -0.1304      2.00000
      5      -0.1304      2.00000
      6      -0.1274      2.00000
      7       0.6516      2.00000
      8       0.6546      2.00000
      9       0.6546      2.00000
     10       0.6576      2.00000
     11       1.4326      2.00000
     12       2.2074      2.00000
     13       2.2083      2.00000
     14       2.2108      2.00000
     15       2.2117      2.00000
     16       2.9741      2.00000
     17       2.9750      2.00000
     18       2.9775      2.00000
     19       2.9784      2.00000
     20       3.7224      2.00000
     21       3.7385      2.00000
     22       3.7416      2.00000
     23       3.7416      2.00000
     24       3.7447      2.00000
     25       5.9702      2.00000
     26       5.9734      2.00000
     27       5.9734      2.00000
     28       5.9766      2.00000
     29       6.0637      2.00000
     30       6.0646      2.00000
     31       6.0672      2.00000
     32       6.0681      2.00000
     33       6.1100      2.00000
     34       6.1100      2.00000
     35       6.8379      2.00000
     36       6.8379      2.00000
     37       7.6346      2.00000
     38       7.6346      2.00000
     39       8.2718      2.00000
     40       8.2728      2.00000
     41       8.2755      2.00000
     42       8.2766      2.00000
     43       8.2948      2.00000
     44       8.2977      2.00000
     45       8.2977      2.00000
     46       8.3006      2.00000
     47       8.3368      2.00000
     48       8.3370      2.00000
     49       9.0269      0.01362
     50       9.0298      0.00401
     51       9.0299      0.00394
     52       9.0328      0.00100
     53       9.7603      0.00000
     54       9.7604      0.00000
     55       9.9585      0.00000
     56       9.9611      0.00000
     57       9.9611      0.00000
     58       9.9637      0.00000
     59       9.9853      0.00000
     60      10.8057      0.00000
     61      10.8082      0.00000
     62      10.8082      0.00000
     63      10.8107      0.00000
     64      11.7990      0.00000
     65      11.7991      0.00000
     66      11.9548      0.00000
     67      11.9549      0.00000
     68      11.9622      0.00000
     69      11.9653      0.00000
     70      11.9653      0.00000
     71      11.9683      0.00000
     72      12.5128      0.00000

 k-point  10 :       0.1667    0.3333    0.0000
  band No.  band energies     occupation 
      1      -2.4481      2.00000
      2      -1.6487      2.00000
      3      -0.8542      2.00000
      4      -0.0662      2.00000
      5      -0.0648      2.00000
      6      -0.0633      2.00000
      7       0.7181      2.00000
      8       0.7198      2.00000
      9       0.7211      2.00000
     10       1.4963      2.00000
     11       1.4985      2.00000
     12       1.4995      2.00000
     13       1.5011      2.00000
     14       2.2735      2.00000
     15       2.2735      2.00000
     16       3.0402      2.00000
     17       3.0420      2.00000
     18       3.0431      2.00000
     19       3.7854      2.00000
     20       3.7903      2.00000
     21       3.7907      2.00000
     22       3.8044      2.00000
     23       3.8044      2.00000
     24       4.5619      2.00000
[...]
      6       0.0665      2.00000
      7       0.0665      2.00000
      8       0.0665      2.00000
      9       1.6284      2.00000
     10       1.6284      2.00000
     11       1.6284      2.00000
     12       1.6284      2.00000
     13       3.1641      2.00000
     14       3.1641      2.00000
     15       3.1641      2.00000
     16       3.1641      2.00000
     17       3.1641      2.00000
     18       3.1641      2.00000
     19       3.1641      2.00000
     20       3.1641      2.00000
     21       4.6646      2.00000
     22       4.6646      2.00000
     23       4.6650      2.00000
     24       4.6650      2.00000
     25       4.6650      2.00000
     26       4.6650      2.00000
     27       4.6654      2.00000
     28       4.6654      2.00000
     29       6.0843      2.00000
     30       6.0843      2.00000
     31       6.0844      2.00000
     32       6.0844      2.00000
     33       6.2595      2.00000
     34       6.2595      2.00000
     35       6.2602      2.00000
     36       6.2602      2.00000
     37       6.2603      2.00000
     38       6.2603      2.00000
     39       6.2610      2.00000
     40       6.2610      2.00000
     41       7.6751      2.00000
     42       7.6751      2.00000
     43       7.6751      2.00000
     44       7.6751      2.00000
     45       9.2165      0.00000
     46       9.2165      0.00000
     47       9.2165      0.00000
     48       9.2165      0.00000
     49       9.6498      0.00000
     50       9.6498      0.00000
     51       9.6498      0.00000
     52       9.6498      0.00000
     53      10.5325      0.00000
     54      10.5325      0.00000
     55      10.5332      0.00000
     56      10.5332      0.00000
     57      10.5333      0.00000
     58      10.5333      0.00000
     59      10.5340      0.00000
     60      10.5340      0.00000
     61      10.7022      0.00000
     62      10.7022      0.00000
     63      10.7022      0.00000
     64      10.7022      0.00000
     65      12.3474      0.00000
     66      12.3474      0.00000
     67      12.3487      0.00000
     68      12.3487      0.00000
     69      12.3487      0.00000
     70      12.3487      0.00000
     71      12.3500      0.00000
     72      12.3500      0.00000

 k-point  39 :       0.3333    0.5000    0.5000
  band No.  band energies     occupation 
      1      -1.3171      2.00000
      2      -1.3171      2.00000
      3      -1.3171      2.00000
      4      -1.3170      2.00000
      5      -0.5246      2.00000
      6      -0.5246      2.00000
      7      -0.5246      2.00000
      8      -0.5246      2.00000
      9       2.5928      2.00000
     10       2.5928      2.00000
     11       2.5928      2.00000
     12       2.5929      2.00000
     13       3.3550      2.00000
     14       3.3550      2.00000
     15       3.3550      2.00000
     16       3.3550      2.00000
     17       3.3550      2.00000
     18       3.3550      2.00000
     19       3.3551      2.00000
     20       3.3551      2.00000
     21       4.1121      2.00000
     22       4.1121      2.00000
     23       4.1123      2.00000
     24       4.1123      2.00000
     25       4.1123      2.00000
     26       4.1123      2.00000
     27       4.1125      2.00000
     28       4.1125      2.00000
     29       4.8521      2.00000
     30       4.8521      2.00000
     31       4.8521      2.00000
     32       4.8522      2.00000
     33       7.1752      2.00000
     34       7.1752      2.00000
     35       7.1757      2.00000
     36       7.1757      2.00000
     37       7.1757      2.00000
     38       7.1757      2.00000
     39       7.1762      2.00000
     40       7.1762      2.00000
     41       7.8946      2.00000
     42       7.8946      2.00000
     43       7.8946      2.00000
     44       7.8946      2.00000
     45       8.6549      2.00000
     46       8.6549      2.00000
     47       8.6549      2.00000
     48       8.6549      2.00000
     49       9.3522      0.00000
     50       9.3522      0.00000
     51       9.3527      0.00000
     52       9.3527      0.00000
     53       9.3527      0.00000
     54       9.3528      0.00000
     55       9.3533      0.00000
     56       9.3533      0.00000
     57      11.1882      0.00000
     58      11.1882      0.00000
     59      11.1882      0.00000
     60      11.1882      0.00000
     61      11.6218      0.00000
     62      11.6218      0.00000
     63      11.6218      0.00000
     64      11.6218      0.00000
     65      12.6025      0.00000
     66      12.6025      0.00000
     67      12.6034      0.00000
     68      12.6034      0.00000
     69      12.6034      0.00000
     70      12.6034      0.00000
     71      12.6043      0.00000
     72      12.6043      0.00000

 k-point  40 :       0.5000    0.5000    0.5000
  band No.  band energies     occupation 
      1      -0.9913      2.00000
      2      -0.9868      2.00000
      3      -0.9868      2.00000
      4      -0.9864      2.00000
      5      -0.9862      2.00000
      6      -0.9858      2.00000
      7      -0.9858      2.00000
      8      -0.9813      2.00000
      9       3.6617      2.00000
     10       3.6676      2.00000
     11       3.6676      2.00000
     12       3.6711      2.00000
     13       3.6714      2.00000
     14       3.6715      2.00000
     15       3.6719      2.00000
     16       3.6719      2.00000
     17       3.6719      2.00000
     18       3.6720      2.00000
     19       3.6720      2.00000
     20       3.6720      2.00000
     21       3.6720      2.00000
     22       3.6721      2.00000
     23       3.6721      2.00000
     24       3.6721      2.00000
     25       3.6721      2.00000
     26       3.6721      2.00000
     27       3.6725      2.00000
     28       3.6727      2.00000
     29       3.6730      2.00000
     30       3.6764      2.00000
     31       3.6764      2.00000
     32       3.6824      2.00000
     33       8.2086      2.00000
     34       8.2086      2.00000
     35       8.2110      2.00000
     36       8.2125      2.00000
     37       8.2142      2.00000
     38       8.2146      2.00000
     39       8.2147      2.00000
     40       8.2147      2.00000
     41       8.2150      2.00000
     42       8.2150      2.00000
     43       8.2150      2.00000
     44       8.2150      2.00000
     45       8.2150      2.00000
     46       8.2150      2.00000
     47       8.2150      2.00000
     48       8.2150      2.00000
     49       8.2153      2.00000
     50       8.2153      2.00000
     51       8.2154      2.00000
     52       8.2158      2.00000
     53       8.2176      2.00000
     54       8.2190      2.00000
     55       8.2214      2.00000
     56       8.2214      2.00000
     57      12.6508      0.00000
     58      12.6514      0.00000
     59      12.6514      0.00000
     60      12.6515      0.00000
     61      12.6535      0.00000
     62      12.6537      0.00000
     63      12.6537      0.00000
     64      12.6543      0.00000
     65      12.9178      0.00000
     66      12.9186      0.00000
     67      12.9193      0.00000
     68      12.9199      0.00000
     69      12.9207      0.00000
     70      12.9210      0.00000
     71      12.9212      0.00000
     72      12.9223      0.00000


--------------------------------------------------------------------------------------------------------


 soft charge-density along one line, spin component           1
         0         1         2         3         4         5         6         7         8         9
 total charge-density along one line
 
 pseudopotential strength for first ion, spin component:           1
  8.413  -0.008  -0.000  -0.000  -0.000  -0.000  -0.000  -0.000
 -0.008   0.000  -0.000  -0.000  -0.000   0.000   0.000   0.000
 -0.000  -0.000   1.993  -0.000  -0.000  -0.030   0.000   0.000
 -0.000  -0.000  -0.000   1.993   0.000   0.000  -0.030  -0.000
 -0.000  -0.000  -0.000   0.000   1.993   0.000  -0.000  -0.030
 -0.000   0.000  -0.030   0.000   0.000  -0.011   0.000   0.000
 -0.000   0.000   0.000  -0.030  -0.000   0.000  -0.011  -0.000
 -0.000   0.000   0.000  -0.000  -0.030   0.000  -0.000  -0.011
 total augmentation occupancy for first ion, spin component:           1
  1.303  -0.587  -0.000   0.000   0.003   0.000  -0.000  -0.002
 -0.587   0.590  -0.000   0.000  -0.004   0.000  -0.000   0.001
 -0.000  -0.000   0.809   0.006   0.010  -0.174  -0.001  -0.001
  0.000   0.000   0.006   0.809   0.003  -0.001  -0.170  -0.001
  0.003  -0.004   0.010   0.003   0.809  -0.001  -0.001  -0.172
  0.000   0.000  -0.174  -0.001  -0.001   0.043   0.000   0.000
 -0.000  -0.000  -0.001  -0.170  -0.001   0.000   0.042   0.000
 -0.002   0.001  -0.001  -0.001  -0.172   0.000   0.000   0.042


------------------------ aborting loop because EDIFF is reached ----------------------------------------




--------------------------------------------------------------------------------------------------------


    CHARGE:  VPU time    1.26: CPU time    1.26
    FORLOC:  VPU time    0.02: CPU time    0.02
    FORNL :  VPU time    4.90: CPU time    4.91
    STRESS:  VPU time   10.93: CPU time   10.95
    FORCOR:  VPU time    0.14: CPU time    0.14
    FORHAR:  VPU time    0.05: CPU time    0.05
    MIXING:  VPU time    0.00: CPU time    0.00


--------------------------------------------------------------------------------------------------------



  FREE ENERGIE OF THE ION-ELECTRON SYSTEM (eV)
  ---------------------------------------------------
  free  energy   TOTEN  =      -118.581737 eV

  energy  without entropy=     -118.580411  energy(sigma->0) =     -118.581074
 

  FORCE on cell =-STRESS in cart. coord.  units (eV/reduce length):
  Direction    X        Y        Z        XY       YZ       ZX
  --------------------------------------------------------------------------------------
  Alpha Z     -7.16     -7.16     -7.16
  Ewald     -809.21   -809.21   -809.21      0.00      0.00     -0.00
  Hartree      1.31      1.31      1.31     -0.00     -0.00     -0.00
  E(xc)     -282.63   -282.63   -282.63      0.00     -0.00      0.00
  Local       23.62     23.62     23.62     -0.00      0.00      0.00
  n-local    621.06    620.64    621.49     -1.43     -0.42      0.59
  augment    -31.41    -31.41    -31.41     -0.00      0.00      0.00
  Kinetic    511.08    505.18    516.99      8.12      2.62     -2.88
  -------------------------------------------------------------------------------------
  Total       26.66     26.66     26.66      0.00      0.00      0.00
  in kB       88.89     88.89     88.89      0.00      0.00      0.00
  external pressure =       88.89 kB  Pullay stress =        0.00 kB


 VOLUME and BASIS-vectors are now :
 -----------------------------------------------------------------------------
  energy-cutoff  :      500.00
  volume of cell :      480.49
      direct lattice vectors                 reciprocal lattice vectors
     7.832374357  0.000000000  0.000000000     0.127675205  0.000000000  0.000000000
     0.000000000  7.832374357  0.000000000     0.000000000  0.127675205  0.000000000
     0.000000000  0.000000000  7.832374357     0.000000000  0.000000000  0.127675205

  length of vectors
     7.832374357  7.832374357  7.832374357     0.127675205  0.127675205  0.127675205


 FORCES acting on ions
    electron-ion (+dipol)            ewald-force                    non-local-force                 convergence-correction
 -----------------------------------------------------------------------------------------------
   0.432E+00 -.889E-13 -.758E-08   -.350E+00 -.488E-14 -.322E-14   -.146E+00 0.252E-19 -.512E-20   -.139E-05 0.697E-15 -.177E-13
   -.917E-01 0.254E-12 -.106E-12   0.924E-01 -.888E-14 0.299E-14   0.209E-02 -.470E-19 0.221E-19   0.296E-06 0.280E-14 -.213E-13
   0.327E-01 0.629E-13 -.287E-13   -.293E-01 -.755E-14 0.211E-14   -.272E-02 -.931E-20 -.236E-19   -.859E-07 -.152E-14 -.163E-13
   -.236E-01 -.373E-12 -.341E-13   0.230E-01 -.755E-14 0.211E-14   0.102E-02 0.256E-19 0.198E-19   -.706E-06 -.363E-14 -.189E-13
   0.327E-01 -.499E-14 -.676E-13   -.293E-01 -.355E-14 -.287E-14   -.272E-02 -.585E-19 -.183E-20   -.773E-07 -.497E-15 0.181E-13
   -.236E-01 -.807E-13 0.307E-14   0.230E-01 -.355E-14 0.688E-15   0.102E-02 0.150E-19 -.289E-19   -.712E-06 0.511E-15 0.217E-13
   0.141E-01 -.294E-13 -.332E-13   -.121E-01 -.533E-14 -.287E-14   -.210E-02 0.343E-19 0.103E-19   -.185E-05 -.312E-15 0.167E-13
   -.985E-02 0.119E-12 0.335E-12   0.113E-01 -.888E-14 -.287E-14   -.946E-03 -.249E-19 0.271E-19   0.178E-05 -.134E-14 0.193E-13
   0.523E-01 -.234E-03 0.234E-03   -.552E-01 0.222E-03 -.222E-03   0.107E-02 0.507E-04 -.507E-04   -.748E-06 0.793E-07 -.793E-07
   -.360E-01 0.892E-04 -.892E-04   0.311E-01 -.664E-04 0.664E-04   0.375E-02 -.225E-04 0.225E-04   -.529E-07 0.354E-07 -.354E-07
   0.523E-01 0.234E-03 0.234E-03   -.552E-01 -.222E-03 -.222E-03   0.107E-02 -.507E-04 -.507E-04   -.748E-06 -.793E-07 -.793E-07
   -.360E-01 -.892E-04 -.892E-04   0.311E-01 0.664E-04 0.664E-04   0.375E-02 0.225E-04 0.225E-04   -.529E-07 -.354E-07 -.354E-07
   0.523E-01 -.234E-03 -.234E-03   -.552E-01 0.222E-03 0.222E-03   0.107E-02 0.507E-04 0.507E-04   -.748E-06 0.793E-07 0.793E-07
   -.360E-01 0.892E-04 0.892E-04   0.311E-01 -.664E-04 -.664E-04   0.375E-02 -.225E-04 -.225E-04   -.529E-07 0.354E-07 0.354E-07
   0.523E-01 0.234E-03 -.234E-03   -.552E-01 -.222E-03 0.222E-03   0.107E-02 -.507E-04 0.507E-04   -.748E-06 -.793E-07 0.793E-07
   -.360E-01 -.892E-04 0.892E-04   0.311E-01 0.664E-04 -.664E-04   0.375E-02 0.225E-04 -.225E-04   -.529E-07 -.354E-07 0.354E-07
   -.529E-01 -.120E-13 0.927E-01   0.447E-01 0.178E-14 -.847E-01   0.169E-01 -.210E-20 -.174E-01   0.575E-06 0.291E-15 -.647E-06
   -.527E-01 -.329E-12 -.939E-01   0.444E-01 0.178E-14 0.854E-01   0.172E-01 0.106E-18 0.179E-01   0.448E-06 0.158E-15 0.513E-06
   -.676E-03 -.236E-13 0.853E-02   0.149E-02 -.888E-15 -.701E-02   -.679E-03 0.893E-19 -.539E-03   0.255E-06 -.117E-14 0.101E-05
   -.538E-03 -.713E-13 -.833E-02   0.135E-02 0.000E+00 0.702E-02   -.666E-03 0.273E-19 0.580E-03   0.218E-06 -.994E-15 -.111E-05
   -.529E-01 -.127E-13 -.927E-01   0.447E-01 0.000E+00 0.847E-01   0.169E-01 -.334E-19 0.174E-01   0.575E-06 0.121E-14 0.647E-06
   -.527E-01 0.563E-13 0.939E-01   0.444E-01 0.000E+00 -.854E-01   0.172E-01 0.280E-19 -.179E-01   0.448E-06 0.151E-14 -.513E-06
   -.676E-03 -.272E-13 -.853E-02   0.149E-02 0.444E-15 0.701E-02   -.679E-03 -.108E-18 0.539E-03   0.255E-06 -.207E-14 -.101E-05
   -.538E-03 0.112E-12 0.833E-02   0.135E-02 0.178E-14 -.702E-02   -.666E-03 -.524E-19 -.580E-03   0.218E-06 -.232E-14 0.111E-05
   -.529E-01 -.927E-01 0.412E-14   0.447E-01 0.847E-01 0.132E-14   0.169E-01 0.174E-01 0.256E-19   0.576E-06 0.643E-06 -.185E-13
   -.527E-01 0.939E-01 0.406E-13   0.444E-01 -.854E-01 0.131E-14   0.172E-01 -.179E-01 0.532E-19   0.449E-06 -.510E-06 -.174E-13
   -.529E-01 0.927E-01 -.724E-15   0.447E-01 -.847E-01 0.131E-14   0.169E-01 -.174E-01 -.189E-19   0.576E-06 -.643E-06 -.194E-13
   -.527E-01 -.939E-01 0.458E-13   0.444E-01 0.854E-01 0.131E-14   0.172E-01 0.179E-01 -.383E-19   0.449E-06 0.510E-06 -.188E-13
   -.676E-03 -.853E-02 -.808E-14   0.149E-02 0.701E-02 0.176E-14   -.679E-03 0.539E-03 -.430E-19   0.254E-06 -.101E-05 0.189E-13
   -.538E-03 0.833E-02 -.896E-13   0.135E-02 -.702E-02 0.220E-14   -.666E-03 -.580E-03 -.254E-19   0.217E-06 0.112E-05 0.178E-13
   -.676E-03 0.853E-02 -.400E-14   0.149E-02 -.701E-02 0.176E-14   -.679E-03 -.539E-03 -.521E-20   0.254E-06 0.101E-05 0.199E-13
   -.538E-03 -.833E-02 0.973E-13   0.135E-02 0.702E-02 0.220E-14   -.666E-03 0.580E-03 0.198E-19   0.217E-06 -.112E-05 0.192E-13
 -----------------------------------------------------------------------------------------------
   0.121E-04 -.223E-12 -.758E-08   0.618E-14 -.737E-15 0.119E-13   -.139E-04 0.325E-18 -.900E-18   0.408E-07 -.758E-16 -.127E-16
 
 
 POSITION                                       TOTAL-FORCE (eV/Angst)
 -----------------------------------------------------------------------------------
      1.96809      1.95809      0.00000        -0.064591     -0.000000     -0.000000
      5.87428      1.95809      0.00000         0.002777      0.000000      0.000000
      1.95809      5.87428      0.00000         0.000751     -0.000000      0.000000
      5.87428      5.87428      0.00000         0.000399     -0.000000      0.000000
      1.95809      1.95809      3.91619         0.000751      0.000000      0.000000
      5.87428      1.95809      3.91619         0.000399      0.000000     -0.000000
      1.95809      5.87428      3.91619        -0.000130     -0.000000     -0.000000
      5.87428      5.87428      3.91619         0.000505     -0.000000     -0.000000
      1.95809      0.00000      1.95809        -0.001849      0.000039     -0.000039
      5.87428      0.00000      1.95809        -0.001237      0.000000     -0.000000
      1.95809      3.91619      1.95809        -0.001849     -0.000039     -0.000039
      5.87428      3.91619      1.95809        -0.001237     -0.000000     -0.000000
      1.95809      0.00000      5.87428        -0.001849      0.000039      0.000039
      5.87428      0.00000      5.87428        -0.001237      0.000000      0.000000
      1.95809      3.91619      5.87428        -0.001849     -0.000039      0.000039
      5.87428      3.91619      5.87428        -0.001237     -0.000000      0.000000
      0.00000      1.95809      1.95809         0.008699      0.000000     -0.009389
      3.91619      1.95809      1.95809         0.008889     -0.000000      0.009402
      0.00000      5.87428      1.95809         0.000138      0.000000      0.000984
      3.91619      5.87428      1.95809         0.000145     -0.000000     -0.000740
      0.00000      1.95809      5.87428         0.008699      0.000000      0.009389
      3.91619      1.95809      5.87428         0.008889     -0.000000     -0.009402
      0.00000      5.87428      5.87428         0.000138     -0.000000     -0.000984
      3.91619      5.87428      5.87428         0.000145     -0.000000      0.000740
      0.00000      0.00000      0.00000         0.008699      0.009389     -0.000000
      3.91619      0.00000      0.00000         0.008889     -0.009402      0.000000
      0.00000      3.91619      0.00000         0.008699     -0.009389      0.000000
      3.91619      3.91619      0.00000         0.008889      0.009402     -0.000000
      0.00000      0.00000      3.91619         0.000138     -0.000984     -0.000000
      3.91619      0.00000      3.91619         0.000145      0.000740     -0.000000
      0.00000      3.91619      3.91619         0.000138      0.000984      0.000000
      3.91619      3.91619      3.91619         0.000145     -0.000740     -0.000000
 -----------------------------------------------------------------------------------
    total drift:                               -0.000002     -0.000000     -0.000000


--------------------------------------------------------------------------------------------------------



 mean value of Nose-termostat <S>:     1.000 mean value of <T> :     0.000
 mean temperature <T/S>/<1/S>  :     0.000

     LOOP+:  VPU time  316.18: CPU time  316.86
  
  
 General timing and accounting informations for this job:
 ========================================================
  
                  Total CPU time used (sec):      321.263
                            User time (sec):      307.415
                          System time (sec):       13.848
                         Elapsed time (sec):      321.948
  
                   Maximum memory used (kb):      892988.
                   Average memory used (kb):           0.
  
                          Minor page faults:       208368
                          Major page faults:            0
                 Voluntary context switches:          911
