   32   32    1    1
  0.1645186E+02  0.8074613E-09  0.8074613E-09  0.8074613E-09  0.5000000E-15
  1.000000000000000E-004
  CAR 
 unknown system                          
   96   40   72
 
  0.0000000E+00  0.0000000E+00  0.0000000E+00  0.4629630E-02
   1       -3.1243
   2       -0.8755
   3       -0.8718
   4       -0.8718
   5       -0.8718
   6       -0.8718
   7       -0.8681
   8        1.3392
   9        1.3436
  10        1.3436
  11        1.3452
  12        1.3454
  13        1.3454
  14        1.3454
  15        1.3454
  16        1.3456
  17        1.3472
  18        1.3472
  19        1.3517
  20        3.4258
  21        3.4259
  22        3.4259
  23        3.4259
  24        3.6464
  25        3.6464
  26        3.6464
  27        3.6464
  28        5.0993
  29        5.0993
  30        5.0993
  31        6.4292
  32        6.4292
  33        6.4292
  34        7.1760
  35        7.1760
  36        7.1803
  37        7.1803
  38        7.1804
  39        7.1804
  40        7.1804
  41        7.1805
  42        7.1805
  43        7.1805
  44        7.1849
  45        7.1849
  46        8.1913
  47        8.1954
  48        8.1954
  49        8.1954
  50        8.1954
  51        8.1995
  52        9.1520
  53        9.1530
  54        9.1530
  55        9.1530
  56        9.1531
  57        9.1541
  58        9.2640
  59        9.2640
  60        9.2656
  61        9.2679
  62        9.2680
  63        9.2680
  64        9.2680
  65        9.2681
  66        9.2682
  67        9.2705
  68        9.2722
  69        9.2722
  70       10.7902
  71       10.7923
  72       10.7930
 
  0.1666667E+00  0.0000000E+00  0.0000000E+00  0.9259259E-02
   1       -3.0613
   2       -1.5562
   3       -0.8098
   4       -0.8098
   5       -0.8098
   6       -0.8098
   7       -0.0676
   8        0.6717
   9        0.6717
  10        0.6717
  11        0.6717
  12        1.4065
  13        1.4065
  14        1.4065
  15        1.4065
  16        2.1370
  17        2.1370
  18        2.1370
  19        2.1370
  20        2.8623
  21        2.8623
  22        2.8623
  23        2.8623
  24        4.2309
  25        4.3268
  26        4.3268
  27        4.3268
  28        4.3268
  29        5.1570
  30        5.1570
  31        6.3457
  32        6.3457
  33        6.3457
  34        6.3457
  35        6.4901
  36        6.4902
  37        6.5437
  38        6.5437
  39        7.2383
  40        7.2383
  41        7.2383
  42        7.2384
  43        7.4068
  44        7.8641
  45        7.8641
  46        7.9338
  47        7.9338
  48        8.4814
  49        8.4814
  50        8.4814
  51        8.4814
  52        8.5883
  53        8.5883
  54        8.5883
  55        8.5884
  56        8.6297
  57        8.6297
  58        8.6297
  59        8.6297
  60        9.5924
  61        9.5924
  62        9.7621
  63        9.7621
  64        9.7621
  65        9.7621
  66       10.0229
  67       10.0229
  68       10.0229
  69       10.0229
  70       10.1485
  71       10.1485
  72       10.1485
 
  0.3333333E+00  0.0000000E+00  0.0000000E+00  0.9259259E-02
   1       -2.8722
   2       -2.1187
   3       -0.6238
   4       -0.6237
   5       -0.6237
   6       -0.6237
   7        0.1179
   8        0.1180
   9        0.1180
  10        0.1180
  11        0.8536
  12        1.5897
  13        1.5897
  14        1.5897
  15        1.5897
  16        2.3197
  17        2.3197
  18        2.3197
  19        2.3197
  20        3.0251
  21        3.0434
  22        3.0434
  23        3.0434
  24        3.0435
  25        5.1737
  26        5.1737
  27        5.1738
  28        5.1738
  29        5.2191
  30        5.2191
  31        5.2191
  32        5.2191
  33        5.3302
  34        5.3302
  35        6.0232
  36        6.0232
  37        6.6720
  38        6.6720
  39        7.3257
  40        7.3257
  41        7.3257
  42        7.3258
  43        7.3797
  44        7.3798
  45        7.4121
  46        7.4121
  47        7.4122
  48        7.4122
  49        8.1076
  50        8.1076
  51        8.1077
  52        8.1077
  53        8.8040
  54        8.8040
  55        8.8664
  56        8.8664
  57        8.8664
  58        8.8664
  59        8.9398
  60        9.6131
  61        9.6131
  62        9.6131
  63        9.6131
  64       10.3972
  65       10.3972
  66       10.8932
  67       10.8932
  68       10.8943
  69       10.8943
  70       10.8959
  71       10.8959
  72       11.1556
 
  0.5000000E+00  0.0000000E+00  0.0000000E+00  0.4629630E-02
   1       -2.5592
   2       -2.5564
   3       -0.3182
   4       -0.3151
   5       -0.3151
   6       -0.3143
   7       -0.3142
   8       -0.3134
   9       -0.3134
  10       -0.3103
  11        1.8855
  12        1.8878
  13        1.8929
  14        1.8933
  15        1.8933
  16        1.8940
  17        1.8950
  18        1.8957
  19        1.8957
  20        1.8981
  21        4.0587
  22        4.0587
  23        4.0587
  24        4.0593
  25        4.0597
  26        4.0603
  27        4.0603
  28        4.0603
  29        5.6173
  30        5.6173
  31        5.6203
  32        5.6203
  33        6.2222
  34        6.2222
  35        6.2227
  36        6.2231
  37        6.2234
  38        6.2238
  39        6.2243
  40        6.2243
  41        6.9696
  42        6.9706
  43        6.9723
  44        6.9734
  45        7.6995
  46        7.6995
  47        7.7004
  48        7.7018
  49        7.7019
  50        7.7033
  51        7.7042
  52        7.7042
  53        9.1859
  54        9.1869
  55        9.1869
  56        9.1871
  57        9.1892
  58        9.1893
  59        9.1893
  60        9.1903
  61        9.7900
  62        9.7900
  63        9.7923
  64        9.7923
  65       10.6214
  66       10.6227
  67       11.3231
  68       11.3236
  69       11.3250
  70       11.3254
  71       11.8812
  72       11.8827
 
  0.0000000E+00  0.1666667E+00  0.0000000E+00  0.1851852E-01
   1       -3.0613
   2       -1.5562
   3       -0.8126
   4       -0.8098
   5       -0.8097
   6       -0.8069
   7       -0.0676
   8        0.6688
   9        0.6717
  10        0.6717
  11        0.6746
  12        1.4044
  13        1.4054
  14        1.4077
  15        1.4087
  16        2.1341
  17        2.1370
  18        2.1370
  19        2.1399
  20        2.8601
  21        2.8611
  22        2.8634
  23        2.8644
  24        4.2309
  25        4.3246
  26        4.3257
  27        4.3280
  28        4.3290
  29        5.1570
  30        5.1570
  31        6.3426
  32        6.3457
  33        6.3457
  34        6.3488
  35        6.4901
  36        6.4901
  37        6.5437
  38        6.5437
  39        7.2356
  40        7.2384
  41        7.2384
  42        7.2411
  43        7.4068
  44        7.8641
  45        7.8641
  46        7.9338
  47        7.9338
  48        8.4789
  49        8.4803
  50        8.4826
  51        8.4840
  52        8.5858
  53        8.5883
  54        8.5883
  55        8.5908
  56        8.6269
  57        8.6297
  58        8.6298
  59        8.6324
  60        9.5924
  61        9.5924
  62        9.7603
  63        9.7620
  64        9.7621
  65        9.7639
  66       10.0201
  67       10.0229
  68       10.0229
  69       10.0257
  70       10.1470
  71       10.1485
  72       10.1502
 
  0.1666667E+00  0.1666667E+00  0.0000000E+00  0.3703704E-01
   1       -2.9982
   2       -1.4950
   3       -1.4927
   4       -0.7477
   5       -0.7477
   6       -0.0076
   7       -0.0057
   8       -0.0039
   9        0.7315
  10        0.7324
  11        0.7338
  12        0.7347
  13        1.4666
  14        1.4676
  15        2.1955
  16        2.1967
  17        2.1980
  18        2.1981
  19        2.1993
  20        2.2004
  21        2.9240
  22        3.5425
  23        3.5425
  24        3.7696
  25        3.7696
  26        4.2897
  27        4.2906
  28        5.1012
  29        5.1012
  30        5.2147
  31        5.7040
  32        5.7064
  33        6.3023
  34        6.3023
  35        6.5279
  36        6.5279
  37        6.5507
  38        6.6002
  39        6.6029
  40        7.0750
  41        7.0769
  42        7.4653
  43        7.4663
  44        7.8355
  45        7.8365
  46        7.8379
  47        7.8389
  48        7.9895
  49        7.9917
  50        7.9940
  51        8.0530
  52        8.0546
  53        8.7263
  54        8.7288
  55        9.2394
  56        9.2405
  57        9.2407
  58        9.2417
  59        9.3091
  60        9.3091
  61        9.3833
  62        9.3852
  63        9.5011
  64        9.7346
  65        9.7353
  66       10.0201
  67       10.0201
  68       10.4254
  69       10.4275
  70       10.7779
  71       10.9007
  72       10.9008
 
  0.3333333E+00  0.1666667E+00  0.0000000E+00  0.3703704E-01
   1       -2.8093
   2       -2.0561
   3       -1.3069
   4       -0.5631
   5       -0.5618
   6       -0.5603
   7        0.1779
   8        0.1796
   9        0.1807
  10        0.9137
  11        0.9166
  12        0.9172
  13        0.9183
  14        1.6511
  15        1.6511
  16        2.3779
  17        2.3798
  18        2.3800
  19        3.0852
  20        3.1015
  21        3.1020
  22        3.1041
  23        3.1048
  24        3.8247
  25        4.4678
  26        4.5219
  27        4.5653
  28        4.5653
  29        5.1765
  30        5.2290
  31        5.2290
  32        5.3879
  33        5.9348
  34        5.9922
  35        5.9922
  36        6.0810
  37        6.6079
  38        6.6080
  39        6.6764
  40        6.6765
  41        6.7310
  42        6.7751
  43        7.3091
  44        7.3091
  45        7.3866
  46        7.4700
  47        7.6420
  48        8.0903
  49        8.0903
  50        8.0980
  51        8.1658
  52        8.2403
  53        8.3211
  54        8.8604
  55        8.8636
  56        8.9647
  57        8.9969
  58        9.5383
  59        9.7626
  60        9.7626
  61       10.1078
  62       10.1128
  63       10.1130
  64       10.2556
  65       10.3655
  66       10.4698
  67       10.5171
  68       10.5171
  69       10.6089
  70       10.9531
  71       11.2329
  72       11.2353
 
  0.5000000E+00  0.1666667E+00  0.0000000E+00  0.1851852E-01
   1       -2.4964
   2       -2.4935
   3       -0.9973
   4       -0.9945
   5       -0.2544
   6       -0.2533
   7       -0.2516
   8       -0.2504
   9        0.4854
  10        0.4882
  11        1.2214
  12        1.2226
  13        1.2243
  14        1.2254
  15        1.9478
  16        1.9491
  17        2.6803
  18        2.6815
  19        2.6832
  20        2.6844
  21        3.3992
  22        3.4006
  23        4.1178
  24        4.1182
  25        4.1191
  26        4.1195
  27        4.7621
  28        4.7651
  29        4.8324
  30        4.8337
  31        5.5695
  32        5.5697
  33        5.5709
  34        5.5711
  35        5.6751
  36        5.6781
  37        6.8964
  38        6.8976
  39        6.8993
  40        6.9005
  41        6.9917
  42        6.9919
  43        6.9931
  44        6.9933
  45        7.0234
  46        7.0261
  47        7.0631
  48        7.0661
  49        7.9301
  50        7.9330
  51        8.4542
  52        8.4573
  53        8.5423
  54        8.5450
  55        9.0274
  56        9.0292
  57        9.8481
  58        9.8504
  59        9.9285
  60        9.9315
  61       10.0934
  62       10.0942
  63       10.0964
  64       10.0971
  65       10.6754
  66       10.6767
  67       11.0935
  68       11.0937
  69       11.0954
  70       11.0955
  71       11.2426
  72       11.2450
 
  0.0000000E+00  0.3333333E+00  0.0000000E+00  0.1851852E-01
   1       -2.8722
   2       -2.1187
   3       -0.6266
   4       -0.6237
   5       -0.6237
   6       -0.6209
   7        0.1151
   8        0.1179
   9        0.1180
  10        0.1208
  11        0.8536
  12        1.5876
  13        1.5886
  14        1.5909
  15        1.5919
  16        2.3175
  17        2.3185
  18        2.3209
  19        2.3219
  20        3.0251
  21        3.0405
  22        3.0434
  23        3.0434
  24        3.0464
  25        5.1707
  26        5.1738
  27        5.1738
  28        5.1768
  29        5.2169
  30        5.2179
  31        5.2203
  32        5.2213
  33        5.3301
  34        5.3302
  35        6.0232
  36        6.0233
  37        6.6720
  38        6.6720
  39        7.3234
  40        7.3246
  41        7.3269
  42        7.3281
  43        7.3796
  44        7.3797
  45        7.4094
  46        7.4121
  47        7.4123
  48        7.4149
  49        8.1049
  50        8.1077
  51        8.1077
  52        8.1104
  53        8.8039
  54        8.8040
  55        8.8641
  56        8.8664
  57        8.8664
  58        8.8687
  59        8.9398
  60        9.6109
  61        9.6131
  62        9.6131
  63        9.6153
  64       10.3972
  65       10.3972
  66       10.8914
  67       10.8943
  68       10.8943
  69       10.8948
  70       10.8948
  71       10.8972
  72       11.1542
 
  0.1666667E+00  0.3333333E+00  0.0000000E+00  0.3703704E-01
   1       -2.8093
   2       -2.0561
   3       -1.3069
   4       -0.5631
   5       -0.5618
   6       -0.5603
   7        0.1779
   8        0.1796
   9        0.1807
  10        0.9140
  11        0.9160
  12        0.9172
  13        0.9187
  14        1.6511
  15        1.6511
  16        2.3774
  17        2.3798
  18        2.3806
  19        3.0852
  20        3.1022
  21        3.1024
  22        3.1038
  23        3.1041
  24        3.8247
  25        4.4679
  26        4.5219
  27        4.5653
  28        4.5653
  29        5.1765
  30        5.2290
  31        5.2290
  32        5.3879
  33        5.9349
  34        5.9922
  35        5.9922
  36        6.0810
  37        6.6080
  38        6.6080
  39        6.6764
  40        6.6764
  41        6.7310
  42        6.7751
  43        7.3091
  44        7.3091
  45        7.3866
  46        7.4700
  47        7.6420
  48        8.0903
  49        8.0903
  50        8.0980
  51        8.1658
  52        8.2403
  53        8.3211
  54        8.8612
  55        8.8628
  56        8.9647
  57        8.9969
  58        9.5382
  59        9.7626
  60        9.7626
  61       10.1079
  62       10.1128
  63       10.1128
  64       10.2556
  65       10.3655
  66       10.4698
  67       10.5171
  68       10.5171
  69       10.6089
  70       10.9531
  71       11.2329
  72       11.2468
 
  0.3333333E+00  0.3333333E+00  0.0000000E+00  0.3703704E-01
   1       -2.6206
   2       -1.8696
   3       -1.8672
   4       -1.1202
   5       -0.3761
   6       -0.3761
   7        0.3627
   8        0.3637
   9        0.3651
  10        0.3660
  11        1.0971
  12        1.0993
  13        1.1011
  14        1.1019
  15        1.8307
  16        1.8318
  17        3.2652
  18        3.2662
  19        3.2822
  20        3.2831
  21        3.2845
  22        3.2855
  23        3.8923
  24        3.8923
  25        3.9839
  26        3.9863
  27        4.1370
  28        4.1370
  29        4.7177
  30        5.2842
  31        5.2842
  32        5.5599
  33        5.5608
  34        5.5620
  35        6.1429
  36        6.1439
  37        6.1453
  38        6.1463
  39        6.2532
  40        6.2558
  41        6.7722
  42        6.7741
  43        6.8792
  44        6.8792
  45        6.9036
  46        6.9488
  47        7.7494
  48        7.7507
  49        8.4291
  50        8.9663
  51        8.9674
  52        8.9675
  53        8.9685
  54        8.9745
  55        9.0349
  56        9.0376
  57        9.1658
  58        9.1670
  59        9.7320
  60        9.7339
  61        9.7443
  62        9.7467
  63       10.7373
  64       10.7381
  65       11.0314
  66       11.0315
  67       11.0354
  68       11.0355
  69       11.1267
  70       11.1287
  71       11.2060
  72       11.2064
 
  0.5000000E+00  0.3333333E+00  0.0000000E+00  0.1851852E-01
   1       -2.3081
   2       -2.3053
   3       -1.5576
   4       -1.5548
   5       -0.0691
   6       -0.0680
   7       -0.0663
   8       -0.0651
   9        0.6698
  10        0.6710
  11        0.6727
  12        0.6738
  13        1.4029
  14        1.4058
  15        2.1301
  16        2.1314
  17        2.8568
  18        2.8581
  19        3.5645
  20        3.5674
  21        3.5790
  22        3.5803
  23        3.5819
  24        3.5832
  25        4.2926
  26        4.2931
  27        4.2939
  28        4.2943
  29        5.0377
  30        5.0378
  31        5.0391
  32        5.0392
  33        5.7126
  34        5.7139
  35        5.7328
  36        5.7337
  37        5.7356
  38        5.7366
  39        5.8484
  40        5.8514
  41        6.5421
  42        6.5452
  43        7.1433
  44        7.1458
  45        7.8740
  46        7.8742
  47        7.8755
  48        7.8757
  49        7.9476
  50        7.9488
  51        8.0135
  52        8.0161
  53        9.3250
  54        9.3281
  55        9.4366
  56        9.4395
  57        9.9518
  58        9.9518
  59        9.9534
  60        9.9534
  61       10.0225
  62       10.0248
  63       10.7082
  64       10.7113
  65       10.7198
  66       10.7221
  67       10.8310
  68       10.8320
  69       11.4172
  70       11.4203
  71       11.5659
  72       11.5676
 
  0.0000000E+00  0.5000000E+00  0.0000000E+00  0.9259259E-02
   1       -2.5578
   2       -2.5578
   3       -0.3195
   4       -0.3148
   5       -0.3142
   6       -0.3142
   7       -0.3142
   8       -0.3142
   9       -0.3137
  10       -0.3091
  11        1.8863
  12        1.8875
  13        1.8917
  14        1.8925
  15        1.8940
  16        1.8942
  17        1.8948
  18        1.8952
  19        1.8966
  20        1.8987
  21        4.0563
  22        4.0568
  23        4.0595
  24        4.0595
  25        4.0595
  26        4.0595
  27        4.0622
  28        4.0627
  29        5.6188
  30        5.6188
  31        5.6188
  32        5.6188
  33        6.2202
  34        6.2217
  35        6.2219
  36        6.2222
  37        6.2243
  38        6.2246
  39        6.2248
  40        6.2263
  41        6.9714
  42        6.9715
  43        6.9715
  44        6.9715
  45        7.6969
  46        7.7014
  47        7.7019
  48        7.7019
  49        7.7019
  50        7.7019
  51        7.7024
  52        7.7069
  53        9.1841
  54        9.1876
  55        9.1881
  56        9.1881
  57        9.1881
  58        9.1881
  59        9.1886
  60        9.1921
  61        9.7911
  62        9.7911
  63        9.7911
  64        9.7912
  65       10.6220
  66       10.6220
  67       11.3242
  68       11.3242
  69       11.3243
  70       11.3243
  71       11.8817
  72       11.8823
 
  0.1666667E+00  0.5000000E+00  0.0000000E+00  0.1851852E-01
   1       -2.4950
   2       -2.4949
   3       -0.9959
   4       -0.9959
   5       -0.2524
   6       -0.2524
   7       -0.2524
   8       -0.2524
   9        0.4868
  10        0.4868
  11        1.2234
  12        1.2235
  13        1.2235
  14        1.2235
  15        1.9484
  16        1.9484
  17        2.6823
  18        2.6823
  19        2.6823
  20        2.6824
  21        3.3999
  22        3.3999
  23        4.1186
  24        4.1186
  25        4.1186
  26        4.1186
  27        4.7636
  28        4.7636
  29        4.8330
  30        4.8330
  31        5.5703
  32        5.5703
  33        5.5703
  34        5.5703
  35        5.6766
  36        5.6766
  37        6.8984
  38        6.8984
  39        6.8984
  40        6.8985
  41        6.9925
  42        6.9925
  43        6.9925
  44        6.9925
  45        7.0247
  46        7.0248
  47        7.0646
  48        7.0647
  49        7.9316
  50        7.9316
  51        8.4558
  52        8.4558
  53        8.5436
  54        8.5436
  55        9.0283
  56        9.0283
  57        9.8493
  58        9.8493
  59        9.9299
  60        9.9300
  61       10.0953
  62       10.0953
  63       10.0953
  64       10.0953
  65       10.6761
  66       10.6761
  67       11.0945
  68       11.0945
  69       11.0945
  70       11.0946
  71       11.2437
  72       11.2439
 
  0.3333333E+00  0.5000000E+00  0.0000000E+00  0.1851852E-01
   1       -2.3067
   2       -2.3067
   3       -1.5562
   4       -1.5562
   5       -0.0671
   6       -0.0671
   7       -0.0671
   8       -0.0671
   9        0.6718
  10        0.6718
  11        0.6718
  12        0.6718
  13        1.4043
  14        1.4044
  15        2.1307
  16        2.1307
  17        2.8574
  18        2.8574
  19        3.5659
  20        3.5660
  21        3.5811
  22        3.5811
  23        3.5811
  24        3.5811
  25        4.2935
  26        4.2935
  27        4.2935
  28        4.2935
  29        5.0385
  30        5.0385
  31        5.0385
  32        5.0385
  33        5.7132
  34        5.7133
  35        5.7346
  36        5.7347
  37        5.7347
  38        5.7347
  39        5.8499
  40        5.8499
  41        6.5437
  42        6.5437
  43        7.1446
  44        7.1446
  45        7.8748
  46        7.8749
  47        7.8749
  48        7.8749
  49        7.9482
  50        7.9482
  51        8.0148
  52        8.0148
  53        9.3265
  54        9.3265
  55        9.4380
  56        9.4380
  57        9.9526
  58        9.9526
  59        9.9526
  60        9.9526
  61       10.0237
  62       10.0237
  63       10.7098
  64       10.7098
  65       10.7210
  66       10.7210
  67       10.8315
  68       10.8315
  69       11.4186
  70       11.4189
  71       11.5633
  72       11.5656
 
  0.5000000E+00  0.5000000E+00  0.0000000E+00  0.9259259E-02
   1       -1.9961
   2       -1.9937
   3       -1.9933
   4       -1.9909
   5        0.2376
   6        0.2397
   7        0.2409
   8        0.2411
   9        0.2414
  10        0.2416
  11        0.2428
  12        0.2449
  13        2.4301
  14        2.4319
  15        2.4336
  16        2.4339
  17        2.4341
  18        2.4344
  19        2.4360
  20        2.4379
  21        4.4713
  22        4.4728
  23        4.4735
  24        4.4741
  25        4.4741
  26        4.4747
  27        4.4754
  28        4.4769
  29        4.7387
  30        4.7389
  31        4.7398
  32        4.7407
  33        4.7407
  34        4.7416
  35        4.7426
  36        4.7427
  37        6.1360
  38        6.1386
  39        6.1390
  40        6.1417
  41        6.6632
  42        6.6641
  43        6.6652
  44        6.6661
  45        7.6365
  46        7.6377
  47        7.6387
  48        7.6399
  49        8.8635
  50        8.8644
  51        8.8645
  52        8.8648
  53        8.8657
  54        8.8660
  55        8.8662
  56        8.8671
  57       10.3086
  58       10.3124
  59       10.3139
  60       10.3142
  61       10.3143
  62       10.3146
  63       10.3160
  64       10.3198
  65       11.0243
  66       11.0260
  67       11.0275
  68       11.0277
  69       11.0280
  70       11.0281
  71       11.0297
  72       11.0313
 
  0.0000000E+00  0.1666667E+00  0.1666667E+00  0.1851852E-01
   1       -2.9982
   2       -1.4938
   3       -1.4938
   4       -0.7494
   5       -0.7461
   6       -0.0059
   7       -0.0059
   8       -0.0053
   9        0.7305
  10        0.7324
  11        0.7338
  12        0.7358
  13        1.4671
  14        1.4671
  15        2.1950
  16        2.1970
  17        2.1971
  18        2.1985
  19        2.1998
  20        2.2008
  21        2.9240
  22        3.5425
  23        3.5425
  24        3.7696
  25        3.7696
  26        4.2902
  27        4.2902
  28        5.0995
  29        5.1029
  30        5.2147
  31        5.7052
  32        5.7052
  33        6.3023
  34        6.3023
  35        6.5279
  36        6.5279
  37        6.5507
  38        6.6015
  39        6.6016
  40        7.0759
  41        7.0759
  42        7.4658
  43        7.4658
  44        7.8343
  45        7.8364
  46        7.8380
  47        7.8400
  48        7.9917
  49        7.9918
  50        7.9918
  51        8.0538
  52        8.0538
  53        8.7275
  54        8.7275
  55        9.2383
  56        9.2391
  57        9.2421
  58        9.2428
  59        9.3090
  60        9.3090
  61        9.3843
  62        9.3843
  63        9.5011
  64        9.7349
  65        9.7349
  66       10.0201
  67       10.0201
  68       10.4264
  69       10.4265
  70       10.7779
  71       10.9007
  72       10.9007
 
  0.1666667E+00  0.1666667E+00  0.1666667E+00  0.3703704E-01
   1       -2.9352
   2       -1.4332
   3       -1.4315
   4       -1.4298
   5        0.0526
   6        0.0555
   7        0.0557
   8        0.0565
   9        0.0566
  10        0.0595
  11        1.5250
  12        1.5271
  13        1.5279
  14        1.5282
  15        1.5292
  16        1.5293
  17        1.5317
  18        2.9807
  19        2.9819
  20        2.9824
  21        2.9835
  22        2.9846
  23        2.9864
  24        4.3488
  25        4.3494
  26        4.3501
  27        4.4459
  28        4.4466
  29        4.4473
  30        5.7580
  31        5.7595
  32        5.7608
  33        5.7608
  34        5.7622
  35        5.7637
  36        5.8751
  37        7.1768
  38        7.1772
  39        7.1787
  40        7.1788
  41        7.1801
  42        7.1806
  43        7.1907
  44        7.1924
  45        7.1941
  46        7.5237
  47        7.5244
  48        7.5251
  49        8.5954
  50        8.5963
  51        8.5974
  52        8.5974
  53        8.5986
  54        8.5994
  55        8.9361
  56        8.9370
  57        8.9381
  58        8.9381
  59        8.9392
  60        8.9401
  61        9.9973
  62        9.9983
  63        9.9992
  64       10.4062
  65       10.4070
  66       10.4079
  67       10.5034
  68       10.5044
  69       10.5054
  70       10.5054
  71       10.5063
  72       10.5073
 
  0.3333333E+00  0.1666667E+00  0.1666667E+00  0.3703704E-01
   1       -2.7464
   2       -1.9935
   3       -1.2447
   4       -1.2447
   5       -0.4997
   6       -0.4997
   7        0.2406
   8        0.2406
   9        0.2414
  10        0.9749
  11        0.9778
  12        0.9784
  13        0.9795
  14        1.7112
  15        1.7112
  16        2.4378
  17        2.4384
  18        2.4408
  19        2.4414
  20        3.1454
  21        3.1647
  22        3.7757
  23        3.8840
  24        3.8840
  25        4.0149
  26        4.5270
  27        4.5270
  28        4.5807
  29        4.5807
  30        5.2348
  31        5.2348
  32        5.3379
  33        5.3379
  34        5.8493
  35        5.8493
  36        6.0265
  37        6.1083
  38        6.1083
  39        6.6645
  40        6.6645
  41        6.7629
  42        7.3627
  43        7.3627
  44        7.4426
  45        7.4426
  46        7.6981
  47        7.6981
  48        7.9836
  49        7.9836
  50        8.0698
  51        8.0698
  52        8.5095
  53        8.5095
  54        8.8527
  55        9.0526
  56        9.1556
  57        9.1556
  58        9.4709
  59        9.4709
  60        9.8781
  61        9.8781
  62       10.1685
  63       10.1685
  64       10.2285
  65       10.2285
  66       10.8684
  67       10.8685
  68       10.8861
  69       10.8861
  70       11.2589
  71       11.2592
  72       11.3216
 
  0.5000000E+00  0.1666667E+00  0.1666667E+00  0.1851852E-01
   1       -2.4336
   2       -2.4308
   3       -0.9362
   4       -0.9342
   5       -0.9334
   6       -0.9314
   7        0.5456
   8        0.5478
   9        0.5479
  10        0.5487
  11        0.5499
  12        0.5513
  13        2.0079
  14        2.0095
  15        2.0144
  16        2.0146
  17        2.0169
  18        2.0178
  19        3.4589
  20        3.4594
  21        3.4603
  22        3.4604
  23        3.4615
  24        3.4640
  25        4.8208
  26        4.8212
  27        4.8238
  28        4.8241
  29        4.8877
  30        4.8880
  31        4.8889
  32        4.8893
  33        4.9184
  34        4.9198
  35        6.2551
  36        6.2571
  37        6.2580
  38        6.2600
  39        6.3400
  40        6.3407
  41        6.3414
  42        6.3421
  43        7.6564
  44        7.6571
  45        7.6594
  46        7.6601
  47        7.7586
  48        7.7601
  49        7.9721
  50        7.9728
  51        7.9749
  52        7.9756
  53        9.0979
  54        9.0985
  55        9.0997
  56        9.1002
  57        9.4597
  58        9.4605
  59        9.4626
  60        9.4634
  61       10.4529
  62       10.4536
  63       10.4547
  64       10.4554
  65       10.7215
  66       10.7227
  67       10.8130
  68       10.8151
  69       10.8161
  70       10.8183
  71       11.8011
  72       11.8050
 
  0.0000000E+00  0.3333333E+00  0.1666667E+00  0.3703704E-01
   1       -2.8093
   2       -2.0561
   3       -1.3069
   4       -0.5639
   5       -0.5617
   6       -0.5596
   7        0.1773
   8        0.1793
   9        0.1817
  10        0.9140
  11        0.9160
  12        0.9167
  13        0.9192
  14        1.6494
  15        1.6527
  16        2.3776
  17        2.3786
  18        2.3816
  19        3.0852
  20        3.1008
  21        3.1021
  22        3.1041
  23        3.1054
  24        3.8247
  25        4.4679
  26        4.5219
  27        4.5636
  28        4.5670
  29        5.1765
  30        5.2273
  31        5.2307
  32        5.3879
  33        5.9348
  34        5.9905
  35        5.9939
  36        6.0811
  37        6.6062
  38        6.6097
  39        6.6747
  40        6.6782
  41        6.7310
  42        6.7752
  43        7.3073
  44        7.3109
  45        7.3865
  46        7.4701
  47        7.6420
  48        8.0885
  49        8.0921
  50        8.0980
  51        8.1658
  52        8.2403
  53        8.3211
  54        8.8619
  55        8.8620
  56        8.9647
  57        8.9969
  58        9.5382
  59        9.7612