  32  32   0   0
  0.1803971E+02  0.8326450E-09  0.8326450E-09  0.8326450E-09  0.5000000E-15
  1.000000000000000E-004
  CAR 
 unknown system                          
     12.66060279     -5.14044721  301      3.03033157      1.00000000
     -5.140  0.0000E+00  0.0000E+00
     -5.081  0.0000E+00  0.0000E+00
     -5.022  0.0000E+00  0.0000E+00
     -4.962  0.0000E+00  0.0000E+00
     -4.903  0.0000E+00  0.0000E+00
     -4.844  0.0000E+00  0.0000E+00
     -4.784  0.0000E+00  0.0000E+00
     -4.725  0.0000E+00  0.0000E+00
     -4.666  0.0000E+00  0.0000E+00
     -4.606  0.0000E+00  0.0000E+00
     -4.547  0.0000E+00  0.0000E+00
     -4.488  0.0000E+00  0.0000E+00
     -4.428  0.0000E+00  0.0000E+00
     -4.369  0.9063E-09  0.5378E-10
     -4.310  0.1110E+00  0.6586E-02
     -4.250  0.6208E+00  0.4342E-01
     -4.191  0.1001E+01  0.1028E+00
     -4.132  0.1596E+01  0.1975E+00
     -4.072  0.1565E+01  0.2904E+00
     -4.013  0.1835E+01  0.3993E+00
     -3.954  0.2181E+01  0.5287E+00
     -3.894  0.1715E+01  0.6306E+00
     -3.835  0.2903E+01  0.8028E+00
     -3.776  0.2078E+01  0.9261E+00
     -3.716  0.2687E+01  0.1086E+01
     -3.657  0.3082E+01  0.1269E+01
     -3.598  0.3649E+01  0.1485E+01
     -3.538  0.2755E+01  0.1648E+01
     -3.479  0.3819E+01  0.1875E+01
     -3.420  0.4269E+01  0.2128E+01
     -3.360  0.3520E+01  0.2337E+01
     -3.301  0.4534E+01  0.2606E+01
     -3.242  0.5160E+01  0.2912E+01
     -3.182  0.5336E+01  0.3229E+01
     -3.123  0.5522E+01  0.3557E+01
     -3.064  0.6327E+01  0.3932E+01
     -3.004  0.1899E+02  0.5059E+01
     -2.945  0.3309E+02  0.7023E+01
     -2.886  0.5605E+02  0.1035E+02
     -2.826  0.6785E+02  0.1438E+02
     -2.767  0.7714E+02  0.1895E+02
     -2.708  0.8472E+02  0.2398E+02
     -2.648  0.9802E+02  0.2980E+02
     -2.589  0.1284E+03  0.3741E+02
     -2.530  0.1375E+03  0.4557E+02
     -2.470  0.1219E+03  0.5281E+02
     -2.411  0.1036E+03  0.5896E+02
     -2.352  0.1025E+03  0.6504E+02
     -2.292  0.8519E+02  0.7009E+02
     -2.233  0.8792E+02  0.7531E+02
     -2.174  0.6849E+02  0.7937E+02
     -2.114  0.7177E+02  0.8363E+02
     -2.055  0.7959E+02  0.8836E+02
     -1.996  0.8905E+02  0.9364E+02
     -1.936  0.8481E+02  0.9867E+02
     -1.877  0.1009E+03  0.1047E+03
     -1.818  0.9565E+02  0.1103E+03
     -1.758  0.9346E+02  0.1159E+03
     -1.699  0.8405E+02  0.1209E+03
     -1.640  0.9632E+02  0.1266E+03
     -1.580  0.9106E+02  0.1320E+03
     -1.521  0.1031E+03  0.1381E+03
     -1.462  0.1207E+03  0.1453E+03
     -1.402  0.1415E+03  0.1537E+03
     -1.343  0.1834E+03  0.1645E+03
     -1.284  0.1463E+03  0.1732E+03
     -1.224  0.1106E+03  0.1798E+03
     -1.165  0.9394E+02  0.1854E+03
     -1.106  0.8342E+02  0.1903E+03
     -1.046  0.9263E+02  0.1958E+03
     -0.987  0.9456E+02  0.2014E+03
     -0.928  0.9323E+02  0.2070E+03
     -0.868  0.9408E+02  0.2125E+03
     -0.809  0.1152E+03  0.2194E+03
     -0.750  0.1105E+03  0.2259E+03
     -0.690  0.1077E+03  0.2323E+03
     -0.631  0.1215E+03  0.2395E+03
     -0.572  0.1155E+03  0.2464E+03
     -0.512  0.9693E+02  0.2521E+03
     -0.453  0.9516E+02  0.2578E+03
     -0.394  0.9834E+02  0.2636E+03
     -0.334  0.8300E+02  0.2685E+03
     -0.275  0.9450E+02  0.2742E+03
     -0.215  0.9474E+02  0.2798E+03
     -0.156  0.9647E+02  0.2855E+03
     -0.097  0.1044E+03  0.2917E+03
     -0.037  0.1258E+03  0.2992E+03
      0.022  0.1664E+03  0.3090E+03
      0.081  0.1580E+03  0.3184E+03
      0.141  0.1031E+03  0.3245E+03
      0.200  0.6670E+02  0.3285E+03
      0.259  0.3506E+02  0.3306E+03
      0.319  0.8341E+01  0.3311E+03
      0.378  0.8948E+01  0.3316E+03
      0.437  0.4187E+01  0.3318E+03
      0.497  0.6836E+01  0.3322E+03
      0.556  0.1121E+02  0.3329E+03
      0.615  0.7709E+01  0.3334E+03
      0.675  0.3722E+01  0.3336E+03
      0.734  0.5352E+01  0.3339E+03
      0.793  0.8336E+01  0.3344E+03
      0.853  0.1059E+02  0.3350E+03
      0.912  0.5533E+01  0.3354E+03
      0.971  0.5446E+01  0.3357E+03
      1.031  0.4296E+01  0.3359E+03
      1.090  0.1194E+02  0.3366E+03
      1.149  0.7778E+01  0.3371E+03
      1.209  0.7643E+01  0.3376E+03
      1.268  0.4958E+01  0.3379E+03
      1.327  0.4098E+01  0.3381E+03
      1.387  0.8411E+01  0.3386E+03
      1.446  0.9703E+01  0.3392E+03
      1.505  0.9205E+01  0.3397E+03
      1.565  0.4568E+01  0.3400E+03
      1.624  0.7299E+01  0.3404E+03
      1.683  0.2945E+01  0.3406E+03
      1.743  0.1325E+02  0.3414E+03
      1.802  0.6590E+01  0.3418E+03
      1.861  0.7649E+01  0.3422E+03
      1.921  0.8583E+01  0.3427E+03
      1.980  0.5579E+01  0.3431E+03
      2.039  0.5073E+01  0.3434E+03
      2.099  0.8465E+01  0.3439E+03
      2.158  0.9542E+01  0.3444E+03
      2.217  0.1029E+02  0.3451E+03
      2.277  0.7171E+01  0.3455E+03
      2.336  0.6381E+01  0.3459E+03
      2.395  0.6377E+01  0.3462E+03
      2.455  0.6598E+01  0.3466E+03
      2.514  0.1126E+02  0.3473E+03
      2.573  0.9167E+01  0.3478E+03
      2.633  0.7283E+01  0.3483E+03
      2.692  0.8580E+01  0.3488E+03
      2.751  0.7840E+01  0.3492E+03
      2.811  0.7331E+01  0.3497E+03
      2.870  0.9856E+01  0.3503E+03
      2.929  0.9250E+01  0.3508E+03
      2.989  0.8562E+01  0.3513E+03
      3.048  0.1314E+02  0.3521E+03
      3.107  0.5147E+01  0.3524E+03
      3.167  0.8848E+01  0.3529E+03
      3.226  0.6161E+01  0.3533E+03
      3.285  0.1040E+02  0.3539E+03
      3.345  0.9679E+01  0.3545E+03
      3.404  0.9849E+01  0.3551E+03
      3.463  0.1005E+02  0.3557E+03
      3.523  0.7040E+01  0.3561E+03
      3.582  0.9123E+01  0.3566E+03
      3.641  0.7906E+01  0.3571E+03
      3.701  0.6477E+01  0.3575E+03
      3.760  0.8774E+01  0.3580E+03
      3.819  0.1235E+02  0.3587E+03
      3.879  0.8467E+01  0.3592E+03
      3.938  0.1189E+02  0.3599E+03
      3.997  0.3670E+01  0.3602E+03
      4.057  0.7972E+01  0.3606E+03
      4.116  0.7982E+01  0.3611E+03
      4.175  0.9059E+01  0.3616E+03
      4.235  0.1017E+02  0.3622E+03
      4.294  0.9383E+01  0.3628E+03
      4.353  0.7468E+01  0.3632E+03
      4.413  0.1120E+02  0.3639E+03
      4.472  0.7347E+01  0.3643E+03
      4.531  0.5588E+01  0.3647E+03
      4.591  0.4948E+01  0.3650E+03
      4.650  0.1515E+02  0.3659E+03
      4.709  0.7274E+01  0.3663E+03
      4.769  0.9361E+01  0.3669E+03
      4.828  0.9491E+01  0.3674E+03
      4.887  0.7556E+01  0.3679E+03
      4.947  0.7686E+01  0.3683E+03
      5.006  0.9735E+01  0.3689E+03
      5.065  0.3509E+01  0.3691E+03
      5.125  0.1165E+02  0.3698E+03
      5.184  0.8234E+01  0.3703E+03
      5.243  0.8643E+01  0.3708E+03
      5.303  0.9178E+01  0.3714E+03
      5.362  0.5507E+01  0.3717E+03
      5.422  0.8508E+01  0.3722E+03
      5.481  0.5068E+01  0.3725E+03
      5.540  0.7079E+01  0.3729E+03
      5.600  0.9132E+01  0.3734E+03
      5.659  0.8441E+01  0.3739E+03
      5.718  0.6719E+01  0.3743E+03
      5.778  0.6767E+01  0.3747E+03
      5.837  0.5486E+01  0.3751E+03
      5.896  0.8702E+01  0.3756E+03
      5.956  0.4654E+01  0.3759E+03
      6.015  0.4895E+01  0.3762E+03
      6.074  0.8615E+01  0.3767E+03
      6.134  0.7147E+01  0.3771E+03
      6.193  0.4535E+01  0.3774E+03
      6.252  0.7932E+01  0.3778E+03
      6.312  0.3607E+01  0.3780E+03
      6.371  0.6224E+01  0.3784E+03
      6.430  0.1170E+02  0.3791E+03
      6.490  0.8476E+01  0.3796E+03
      6.549  0.8865E+01  0.3801E+03
      6.608  0.1225E+02  0.3809E+03
      6.668  0.1332E+02  0.3817E+03
      6.727  0.1044E+02  0.3823E+03
      6.786  0.1200E+02  0.3830E+03
      6.846  0.9919E+01  0.3836E+03
      6.905  0.1049E+02  0.3842E+03
      6.964  0.1077E+02  0.3848E+03
      7.024  0.1232E+02  0.3856E+03
      7.083  0.9857E+01  0.3862E+03
      7.142  0.1277E+02  0.3869E+03
      7.202  0.6525E+01  0.3873E+03
      7.261  0.1680E+02  0.3883E+03
      7.320  0.9203E+01  0.3888E+03
      7.380  0.9855E+01  0.3894E+03
      7.439  0.9188E+01  0.3900E+03
      7.498  0.8999E+01  0.3905E+03
      7.558  0.1066E+02  0.3911E+03
      7.617  0.1231E+02  0.3919E+03
      7.676  0.1200E+02  0.3926E+03
      7.736  0.7156E+01  0.3930E+03
      7.795  0.9139E+01  0.3935E+03
      7.854  0.1176E+02  0.3942E+03
      7.914  0.8620E+01  0.3948E+03
      7.973  0.9389E+01  0.3953E+03
      8.032  0.1188E+02  0.3960E+03
      8.092  0.7937E+01  0.3965E+03
      8.151  0.7839E+01  0.3970E+03
      8.210  0.1049E+02  0.3976E+03
      8.270  0.1109E+02  0.3982E+03
      8.329  0.7606E+01  0.3987E+03
      8.388  0.9588E+01  0.3993E+03
      8.448  0.9674E+01  0.3998E+03
      8.507  0.1071E+02  0.4005E+03
      8.566  0.8662E+01  0.4010E+03
      8.626  0.6178E+01  0.4013E+03
      8.685  0.9982E+01  0.4019E+03
      8.744  0.8639E+01  0.4024E+03
      8.804  0.9715E+01  0.4030E+03
      8.863  0.1010E+02  0.4036E+03
      8.922  0.9373E+01  0.4042E+03
      8.982  0.8743E+01  0.4047E+03
      9.041  0.7362E+01  0.4051E+03
      9.100  0.9051E+01  0.4057E+03
      9.160  0.8572E+01  0.4062E+03
      9.219  0.7147E+01  0.4066E+03
      9.278  0.9184E+01  0.4072E+03
      9.338  0.1172E+02  0.4078E+03
      9.397  0.9761E+01  0.4084E+03
      9.456  0.1225E+02  0.4092E+03
      9.516  0.1394E+02  0.4100E+03
      9.575  0.1552E+02  0.4109E+03
      9.634  0.1434E+02  0.4118E+03
      9.694  0.7558E+01  0.4122E+03
      9.753  0.1376E+02  0.4130E+03
      9.812  0.8729E+01  0.4135E+03
      9.872  0.1014E+02  0.4141E+03
      9.931  0.1408E+02  0.4150E+03
      9.990  0.1317E+02  0.4158E+03
     10.050  0.1893E+02  0.4169E+03
     10.109  0.1294E+02  0.4176E+03
     10.168  0.1974E+02  0.4188E+03
     10.228  0.1308E+02  0.4196E+03
     10.287  0.9859E+01  0.4202E+03
     10.346  0.1431E+02  0.4210E+03
     10.406  0.1012E+02  0.4216E+03
     10.465  0.1223E+02  0.4224E+03
     10.524  0.7604E+01  0.4228E+03
     10.584  0.1777E+02  0.4239E+03
     10.643  0.2196E+02  0.4252E+03
     10.702  0.1517E+02  0.4261E+03
     10.762  0.1184E+02  0.4268E+03
     10.821  0.1108E+02  0.4274E+03
     10.880  0.9136E+01  0.4280E+03
     10.940  0.1067E+02  0.4286E+03
     10.999  0.8709E+01  0.4291E+03
     11.059  0.8617E+01  0.4296E+03
     11.118  0.7310E+01  0.4301E+03
     11.177  0.1085E+02  0.4307E+03
     11.237  0.5527E+01  0.4310E+03
     11.296  0.4765E+01  0.4313E+03
     11.355  0.1939E+01  0.4314E+03
     11.415  0.4023E+01  0.4317E+03
     11.474  0.2107E+01  0.4318E+03
     11.533  0.1802E+01  0.4319E+03
     11.593  0.4743E+00  0.4319E+03
     11.652  0.2078E-04  0.4319E+03
     11.711  0.3902E+00  0.4319E+03
     11.771  0.3746E+00  0.4320E+03
     11.830  0.7397E-01  0.4320E+03
     11.889  0.4096E+00  0.4320E+03
     11.949  0.0000E+00  0.4320E+03
     12.008  0.0000E+00  0.4320E+03
     12.067  0.0000E+00  0.4320E+03
     12.127  0.0000E+00  0.4320E+03
     12.186  0.0000E+00  0.4320E+03
     12.245  0.0000E+00  0.4320E+03
     12.305  0.0000E+00  0.4320E+03
     12.364  0.0000E+00  0.4320E+03
     12.423  0.0000E+00  0.4320E+03
     12.483  0.0000E+00  0.4320E+03
     12.542  0.0000E+00  0.4320E+03
     12.601  0.0000E+00  0.4320E+03
     12.661  0.0000E+00  0.4320E+03
