   32   32    1    1
  0.1803971E+02  0.8326450E-09  0.8326450E-09  0.8326450E-09  0.5000000E-15
  1.000000000000000E-004
  CAR 
 unknown system                          
  352  196  216
 
  0.0000000E+00  0.0000000E+00  0.0000000E+00  0.5787037E-03
   1       -4.3313
   2       -3.0804
   3       -3.0804
   4       -3.0804
   5       -3.0455
   6       -3.0455
   7       -3.0455
   8       -3.0455
   9       -2.9623
  10       -2.9623
  11       -2.9623
  12       -2.6415
  13       -2.6397
  14       -2.6397
  15       -2.6397
  16       -2.6397
  17       -2.6380
  18       -2.3917
  19       -2.3901
  20       -2.3901
  21       -2.3901
  22       -2.3901
  23       -2.3885
  24       -2.3205
  25       -2.3189
  26       -2.3189
  27       -2.3188
  28       -2.3188
  29       -2.3172
  30       -2.0916
  31       -2.0916
  32       -2.0912
  33       -2.0905
  34       -2.0902
  35       -2.0902
  36       -2.0902
  37       -2.0902
  38       -2.0898
  39       -2.0891
  40       -2.0888
  41       -2.0888
  42       -1.8947
  43       -1.8927
  44       -1.8927
  45       -1.8918
  46       -1.8918
  47       -1.8918
  48       -1.8918
  49       -1.8918
  50       -1.8917
  51       -1.8909
  52       -1.8909
  53       -1.8890
  54       -1.8392
  55       -1.8392
  56       -1.8375
  57       -1.8375
  58       -1.8374
  59       -1.8374
  60       -1.8374
  61       -1.8374
  62       -1.8374
  63       -1.8373
  64       -1.8356
  65       -1.8356
  66       -1.6218
  67       -1.6218
  68       -1.6218
  69       -1.6217
  70       -1.6217
  71       -1.6217
  72       -1.6217
  73       -1.6217
  74       -1.6041
  75       -1.6041
  76       -1.6041
  77       -1.5093
  78       -1.5072
  79       -1.5069
  80       -1.5069
  81       -1.5067
  82       -1.5067
  83       -1.5067
  84       -1.5067
  85       -1.5066
  86       -1.5066
  87       -1.5063
  88       -1.5042
  89       -1.0051
  90       -1.0045
  91       -1.0036
  92       -1.0036
  93       -1.0032
  94       -1.0032
  95       -1.0032
  96       -1.0032
  97       -1.0027
  98       -1.0027
  99       -1.0019
 100       -1.0013
 101       -0.8098
 102       -0.8098
 103       -0.8079
 104       -0.8079
 105       -0.8077
 106       -0.8077
 107       -0.8077
 108       -0.8077
 109       -0.8076
 110       -0.8076
 111       -0.8057
 112       -0.8057
 113       -0.6675
 114       -0.6674
 115       -0.6543
 116       -0.6543
 117       -0.6527
 118       -0.6523
 119       -0.6520
 120       -0.6519
 121       -0.6519
 122       -0.6519
 123       -0.6519
 124       -0.6516
 125       -0.6503
 126       -0.6503
 127       -0.6494
 128       -0.6489
 129       -0.6487
 130       -0.6479
 131       -0.6479
 132       -0.6472
 133       -0.6259
 134       -0.6243
 135       -0.6243
 136       -0.6243
 137       -0.6242
 138       -0.6225
 139       -0.3310
 140       -0.3301
 141       -0.3301
 142       -0.3301
 143       -0.3301
 144       -0.3292
 145        0.0235
 146        0.0235
 147        0.0235
 148        0.0530
 149        0.0530
 150        0.0530
 151        0.0530
 152        0.0530
 153        0.0530
 154        0.0530
 155        0.0530
 156        0.2402
 157        0.2405
 158        0.2405
 159        0.2405
 160        0.2405
 161        0.2405
 162        0.2413
 163        0.2413
 164        0.2413
 165        0.2413
 166        0.2414
 167        0.2416
 168        2.4354
 169        2.4362
 170        2.4362
 171        2.4372
 172        2.4375
 173        2.4375
 174        2.4375
 175        2.4375
 176        2.4378
 177        2.4388
 178        2.4388
 179        2.4396
 180        2.7780
 181        2.7780
 182        2.7781
 183        2.7781
 184        4.6992
 185        4.6992
 186        4.6992
 187        6.3409
 188        6.3409
 189        6.3409
 190        6.3410
 191        8.7828
 192        8.7828
 193        8.7854
 194        8.7854
 195        8.7857
 196        8.7857
 197        8.7858
 198        8.7858
 199        8.7861
 200        8.7861
 201        8.7887
 202        8.7887
 203        9.3554
 204        9.3554
 205        9.3554
 206        9.7342
 207        9.7342
 208        9.7343
 209        9.7343
 210        9.7343
 211        9.7343
 212       10.9053
 213       10.9068
 214       10.9068
 215       10.9068
 216       10.9084
 
  0.8333333E-01  0.0000000E+00  0.0000000E+00  0.1157407E-02
   1       -4.3139
   2       -3.0734
   3       -3.0713
   4       -3.0713
   5       -3.0371
   6       -3.0371
   7       -3.0371
   8       -3.0371
   9       -2.9570
  10       -2.9543
  11       -2.9543
  12       -2.7383
  13       -2.6284
  14       -2.6283
  15       -2.6283
  16       -2.6283
  17       -2.6030
  18       -2.4068
  19       -2.4067
  20       -2.4065
  21       -2.3833
  22       -2.3833
  23       -2.3833
  24       -2.3832
  25       -2.3144
  26       -2.3144
  27       -2.3144
  28       -2.3143
  29       -2.2300
  30       -2.1555
  31       -2.1555
  32       -2.1554
  33       -2.1554
  34       -2.1072
  35       -2.1072
  36       -2.1072
  37       -2.1071
  38       -2.0714
  39       -2.0714
  40       -2.0714
  41       -2.0714
  42       -2.0122
  43       -2.0122
  44       -1.9287
  45       -1.9287
  46       -1.9287
  47       -1.9286
  48       -1.8632
  49       -1.8627
  50       -1.8627
  51       -1.8627
  52       -1.8566
  53       -1.8566
  54       -1.8566
  55       -1.8562
  56       -1.8403
  57       -1.8403
  58       -1.8403
  59       -1.8403
  60       -1.8366
  61       -1.8366
  62       -1.8366
  63       -1.8364
  64       -1.6504
  65       -1.6504
  66       -1.6245
  67       -1.6245
  68       -1.6245
  69       -1.6245
  70       -1.6156
  71       -1.6156
  72       -1.6156
  73       -1.6156
  74       -1.6106
  75       -1.5980
  76       -1.5980
  77       -1.5480
  78       -1.5480
  79       -1.5480
  80       -1.5480
  81       -1.5154
  82       -1.5154
  83       -1.5153
  84       -1.5153
  85       -1.4639
  86       -1.4639
  87       -1.4639
  88       -1.4639
  89       -1.0322
  90       -1.0321
  91       -1.0321
  92       -1.0321
  93       -0.9954
  94       -0.9954
  95       -0.9954
  96       -0.9954
  97       -0.9644
  98       -0.9644
  99       -0.9644
 100       -0.9644
 101       -0.9229
 102       -0.9229
 103       -0.9022
 104       -0.9022
 105       -0.9021
 106       -0.9021
 107       -0.8221
 108       -0.8082
 109       -0.8082
 110       -0.8082
 111       -0.8082
 112       -0.7060
 113       -0.7060
 114       -0.7059
 115       -0.7059
 116       -0.6884
 117       -0.6884
 118       -0.6739
 119       -0.6646
 120       -0.6489
 121       -0.6487
 122       -0.6487
 123       -0.6487
 124       -0.6324
 125       -0.6323
 126       -0.6215
 127       -0.6214
 128       -0.6214
 129       -0.6213
 130       -0.5844
 131       -0.5844
 132       -0.5843
 133       -0.5843
 134       -0.5370
 135       -0.5370
 136       -0.5370
 137       -0.5370
 138       -0.3750
 139       -0.3322
 140       -0.3183
 141       -0.3183
 142       -0.3183
 143       -0.3182
 144       -0.2849
 145        0.0149
 146        0.0149
 147        0.0204
 148        0.0299
 149        0.0299
 150        0.0299
 151        0.0299
 152        0.0454
 153        0.0454
 154        0.0454
 155        0.0454
 156        0.2095
 157        0.2095
 158        0.2297
 159        0.2297
 160        0.2297
 161        0.2297
 162        0.2299
 163        0.2299
 164        0.2402
 165        0.2405
 166        0.2413
 167        0.2416
 168        2.0681
 169        2.0681
 170        2.0681
 171        2.0681
 172        2.4407
 173        2.4407
 174        2.4407
 175        2.4407
 176        2.7667
 177        2.7667
 178        2.7667
 179        2.7667
 180        2.8383
 181        2.8383
 182        2.8383
 183        2.8383
 184        4.5678
 185        4.7447
 186        4.7447
 187        6.4006
 188        6.4006
 189        6.4006
 190        6.4006
 191        8.2919
 192        8.2919
 193        8.4559
 194        8.4559
 195        8.4560
 196        8.4560
 197        8.8129
 198        8.8129
 199        8.8129
 200        8.8129
 201        9.2874
 202        9.2874
 203        9.3584
 204        9.3584
 205        9.5146
 206        9.7186
 207        9.7186
 208        9.9280
 209        9.9280
 210        9.9280
 211        9.9280
 212       10.9495
 213       10.9495
 214       11.0798
 215       11.0799
 216       11.0799
 
  0.1666667E+00  0.0000000E+00  0.0000000E+00  0.1157407E-02
   1       -4.2617
   2       -3.0527
   3       -3.0445
   4       -3.0445
   5       -3.0120
   6       -3.0120
   7       -3.0120
   8       -3.0120
   9       -2.9413
  10       -2.9303
  11       -2.9303
  12       -2.8967
  13       -2.6150
  14       -2.5945
  15       -2.5945
  16       -2.5945
  17       -2.5945
  18       -2.4915
  19       -2.4534
  20       -2.4534
  21       -2.3634
  22       -2.3634
  23       -2.3634
  24       -2.3634
  25       -2.3010
  26       -2.3010
  27       -2.3010
  28       -2.3009
  29       -2.2778
  30       -2.2777
  31       -2.2777
  32       -2.2777
  33       -2.1737
  34       -2.1737
  35       -2.1414
  36       -2.1208
  37       -2.1208
  38       -2.1208
  39       -2.1208
  40       -2.0572
  41       -2.0572
  42       -2.0572
  43       -2.0572
  44       -1.9722
  45       -1.9722
  46       -1.9722
  47       -1.9721
  48       -1.8484
  49       -1.8484
  50       -1.8484
  51       -1.8484
  52       -1.8422
  53       -1.8417
  54       -1.8417
  55       -1.8417
  56       -1.8344
  57       -1.8344
  58       -1.8344
  59       -1.8340
  60       -1.8120
  61       -1.8120
  62       -1.8120
  63       -1.8120
  64       -1.6328
  65       -1.6327
  66       -1.6327
  67       -1.6327
  68       -1.6298
  69       -1.6191
  70       -1.6191
  71       -1.6191
  72       -1.6190
  73       -1.5972
  74       -1.5972
  75       -1.5972
  76       -1.5972
  77       -1.5798
  78       -1.5798
  79       -1.5637
  80       -1.5636
  81       -1.5636
  82       -1.5636
  83       -1.4525
  84       -1.4525
  85       -1.3483
  86       -1.3483
  87       -1.3483
  88       -1.3483
  89       -1.0992
  90       -1.0992
  91       -1.0992
  92       -1.0992
  93       -1.0458
  94       -1.0458
  95       -1.0458
  96       -1.0458
  97       -1.0324
  98       -1.0324
  99       -0.9427
 100       -0.9426
 101       -0.9426
 102       -0.9426
 103       -0.9285
 104       -0.9022
 105       -0.9022
 106       -0.9021
 107       -0.9021
 108       -0.8094
 109       -0.8094
 110       -0.8094
 111       -0.8094
 112       -0.7467
 113       -0.7467
 114       -0.7467
 115       -0.7467
 116       -0.6931
 117       -0.6562
 118       -0.6493
 119       -0.6492
 120       -0.6492
 121       -0.6492
 122       -0.5862
 123       -0.5861
 124       -0.5669
 125       -0.5669
 126       -0.5501
 127       -0.5501
 128       -0.5501
 129       -0.5501
 130       -0.5043
 131       -0.5043
 132       -0.5043
 133       -0.5043
 134       -0.4589
 135       -0.4589
 136       -0.4589
 137       -0.4589
 138       -0.4189
 139       -0.2403
 140       -0.2382
 141       -0.2382
 142       -0.2382
 143       -0.2382
 144       -0.0378
 145       -0.0378
 146       -0.0378
 147       -0.0378
 148       -0.0107
 149       -0.0107
 150        0.0112
 151        0.0226
 152        0.0226
 153        0.0226
 154        0.0226
 155        0.0416
 156        0.1206
 157        0.1206
 158        0.1955
 159        0.1955
 160        0.1955
 161        0.1955
 162        0.1985
 163        0.1985
 164        0.2402
 165        0.2405
 166        0.2413
 167        0.2416
 168        1.7276
 169        1.7276
 170        1.7276
 171        1.7276
 172        2.4502
 173        2.4503
 174        2.4503
 175        2.4503
 176        2.7356
 177        2.7356
 178        2.7356
 179        2.7356
 180        3.2721
 181        3.2721
 182        3.2722
 183        3.2722
 184        4.2181
 185        4.8775
 186        4.8775
 187        6.5746
 188        6.5746
 189        6.5746
 190        6.5747
 191        7.8089
 192        7.8089
 193        7.8543
 194        7.8543
 195        7.8543
 196        7.8543
 197        8.8938
 198        8.8938
 199        8.8938
 200        8.8938
 201        9.3674
 202        9.3674
 203        9.6779
 204        9.6779
 205        9.7935
 206        9.7935
 207        9.9476
 208       10.1424
 209       10.1424
 210       10.1424
 211       10.1424
 212       10.5928
 213       10.5928
 214       10.5928
 215       10.5928
 216       11.0827
 
  0.2500000E+00  0.0000000E+00  0.0000000E+00  0.1157407E-02
   1       -4.1755
   2       -3.0964
   3       -3.0190
   4       -3.0007
   5       -3.0007
   6       -2.9704
   7       -2.9704
   8       -2.9704
   9       -2.9704
  10       -2.9154
  11       -2.8903
  12       -2.8903
  13       -2.6581
  14       -2.5726
  15       -2.5397
  16       -2.5396
  17       -2.5396
  18       -2.5396
  19       -2.5232
  20       -2.5231
  21       -2.4080
  22       -2.4080
  23       -2.4080
  24       -2.4079
  25       -2.3317
  26       -2.3317
  27       -2.3317
  28       -2.3317
  29       -2.3214
  30       -2.3214
  31       -2.2789
  32       -2.2788
  33       -2.2788
  34       -2.2788
  35       -2.1325
  36       -2.1325
  37       -2.1325
  38       -2.1325
  39       -2.0622
  40       -2.0622
  41       -2.0622
  42       -2.0622
  43       -2.0548
  44       -2.0203
  45       -2.0203
  46       -2.0203
  47       -2.0203
  48       -1.8593
  49       -1.8593
  50       -1.8593
  51       -1.8592
  52       -1.8320
  53       -1.8311
  54       -1.8311
  55       -1.8310
  56       -1.8282
  57       -1.8282
  58       -1.8282
  59       -1.8273
  60       -1.7803
  61       -1.7803
  62       -1.7803
  63       -1.7802
  64       -1.6986
  65       -1.6986
  66       -1.6986
  67       -1.6985
  68       -1.6615
  69       -1.6459
  70       -1.6459
  71       -1.6459
  72       -1.6459
  73       -1.6133
  74       -1.6132
  75       -1.6132
  76       -1.6132
  77       -1.5668
  78       -1.5668
  79       -1.5668
  80       -1.5668
  81       -1.5496
  82       -1.5496
  83       -1.2454
  84       -1.2454
  85       -1.1889
  86       -1.1888
  87       -1.1888
  88       -1.1888
  89       -1.1856
  90       -1.1855
  91       -1.1855
  92       -1.1854
  93       -1.1794
  94       -1.1793
  95       -1.1793
  96       -1.1793
  97       -1.1348
  98       -1.1348
  99       -0.9634
 100       -0.8659
 101       -0.8658
 102       -0.8658
 103       -0.8658
 104       -0.8368
 105       -0.8368
 106       -0.8368
 107       -0.8367
 108       -0.8112
 109       -0.8112
 110       -0.8112
 111       -0.8111
 112       -0.7756
 113       -0.7756
 114       -0.7756
 115       -0.7756
 116       -0.7241
 117       -0.6519
 118       -0.6519
 119       -0.6519
 120       -0.6519
 121       -0.6423
 122       -0.5174
 123       -0.5174
 124       -0.4638
 125       -0.4632
 126       -0.4632
 127       -0.4632
 128       -0.4627
 129       -0.4626
 130       -0.4626
 131       -0.4626
 132       -0.4605
 133       -0.4452
 134       -0.4452
 135       -0.4138
 136       -0.4138
 137       -0.4137
 138       -0.4137
 139       -0.1968
 140       -0.1452
 141       -0.1451
 142       -0.1451
 143       -0.1451
 144       -0.0694
 145       -0.0694
 146       -0.0694
 147       -0.0694
 148       -0.0526
 149       -0.0526
 150       -0.0164
 151       -0.0164
 152       -0.0147
 153       -0.0147
 154       -0.0147
 155       -0.0147
 156       -0.0040
 157        0.1406
 158        0.1406
 159        0.1406
 160        0.1406
 161        0.1475
 162        0.1475
 163        0.2402
 164        0.2406
 165        0.2412
 166        0.2416
 167        0.4799
 168        1.4130
 169        1.4130
 170        1.4130
 171        1.4130
 172        2.4663
 173        2.4663
 174        2.4663
 175        2.4663
 176        2.6921
 177        2.6921
 178        2.6921
 179        2.6921
 180        3.7357
 181        3.7402
 182        3.7402
 183        3.7402
 184        3.7403
 185        5.0874
 186        5.0874
 187        6.8509
 188        6.8509
 189        6.8510
 190        6.8510
 191        7.2089
 192        7.2089
 193        7.2089
 194        7.2089
 195        7.3400
 196        7.3400
 197        9.0265
 198        9.0265
 199        9.0265
 200        9.0265
 201        9.3829
 202        9.3829
 203        9.6245
 204        9.6245
 205        9.9260
 206        9.9260
 207        9.9260
 208        9.9260
 209       10.2785
 210       10.2785
 211       10.2785
 212       10.2785
 213       10.3007
 214       10.3007
 215       10.5693
 216       10.7100
 
  0.3333333E+00  0.0000000E+00  0.0000000E+00  0.1157407E-02
   1       -4.0565
   2       -3.3134
   3       -2.9733
   4       -2.9415
   5       -2.9415
   6       -2.9126
   7       -2.9126
   8       -2.9126
   9       -2.9126
  10       -2.8796
  11       -2.8345
  12       -2.8345
  13       -2.7184
  14       -2.6484
  15       -2.6072
  16       -2.6072
  17       -2.5330
  18       -2.5330
  19       -2.5330
  20       -2.5330
  21       -2.4659
  22       -2.4659
  23       -2.4659
  24       -2.4659
  25       -2.4544
  26       -2.4544
  27       -2.2908
  28       -2.2908
  29       -2.2908
  30       -2.2908
  31       -2.2488
  32       -2.2488
  33       -2.2488
  34       -2.2488
  35       -2.1464
  36       -2.1463
  37       -2.1463
  38       -2.1463
  39       -2.1044
  40       -2.1044
  41       -2.1043
  42       -2.1043
  43       -2.0707
  44       -2.0707
  45       -2.0707
  46       -2.0706
  47       -1.9716
  48       -1.8691
  49       -1.8691
  50       -1.8691
  51       -1.8691
  52       -1.8275
  53       -1.8270
  54       -1.8270
  55       -1.8270
  56       -1.8210
  57       -1.8210
  58       -1.8210
  59       -1.8205
  60       -1.7720
  61       -1.7719
  62       -1.7719
  63       -1.7719
  64       -1.7542
  65       -1.7542
  66       -1.7542
  67       -1.7541
  68       -1.7047
  69       -1.6631
  70       -1.6631
  71       -1.6631
  72       -1.6631
  73       -1.6269
  74       -1.6268
  75       -1.6268
  76       -1.6268
  77       -1.5249
  78       -1.5249
  79       -1.5249
  80       -1.5249
  81       -1.5076
  82       -1.5076
  83       -1.3140
  84       -1.3140
  85       -1.3140
  86       -1.3140
  87       -1.2610
  88       -1.2610
  89       -1.2610
  90       -1.2610
  91       -1.2291
  92       -1.2291
  93       -1.0315
  94       -1.0315
  95       -1.0080
  96       -1.0080
  97       -1.0080
  98       -1.0080
  99       -0.9518
 100       -0.8127
 101       -0.8127
 102       -0.8127
 103       -0.8127
 104       -0.7946
 105       -0.7945
 106       -0.7945
 107       -0.7945
 108       -0.7820
 109       -0.7816
 110       -0.7815
 111       -0.7815
 112       -0.7785
 113       -0.7785
 114       -0.7784
 115       -0.7781
 116       -0.7650
 117       -0.6590
 118       -0.6590
 119       -0.6590
 120       -0.6590
 121       -0.6231
 122       -0.5007
 123       -0.5002
 124       -0.5002
 125       -0.5001
 126       -0.5001
 127       -0.4348
 128       -0.4348
 129       -0.3727
 130       -0.3727
 131       -0.3727
 132       -0.3726
 133       -0.3257
 134       -0.3257
 135       -0.3159
 136       -0.3159
 137       -0.3159
 138       -0.3159
 139       -0.2852
 140       -0.2852
 141       -0.2852
 142       -0.2851
 143       -0.1892
 144       -0.1892
 145       -0.1555
 146       -0.1096
 147       -0.1095
 148       -0.0655
 149       -0.0655
 150       -0.0655
 151       -0.0655
 152       -0.0249
 153        0.0682
 154        0.0682
 155        0.0682
 156        0.0682
 157        0.0786
 158        0.0786
 159        0.1347
 160        0.1347
 161        0.1347
 162        0.1347
 163        0.2403
 164        0.2407
 165        0.2411
 166        0.2415
 167        0.9680
 168        1.1213
 169        1.1213
 170        1.1213
 171        1.1213
 172        2.4890
 173        2.4890
 174        2.4891
 175        2.4891
 176        2.6440
 177        2.6440
 178        2.6440
 179        2.6440
 180        3.1886
 181        4.2424
 182        4.2424
 183        4.2425
 184        4.2425
 185        5.3618
 186        5.3618
 187        6.5669
 188        6.5669
 189        6.5669
 190        6.5669
 191        6.8888
 192        6.8888
 193        7.2145
 194        7.2145
 195        7.2145
 196        7.2145
 197        9.2079
 198        9.2079
 199        9.2079
 200        9.2079
 201        9.2930
 202        9.2930
 203        9.2930
 204        9.2930
 205        9.4052
 206        9.4052
 207        9.5689
 208        9.5689
 209       10.3437
 210       10.3437
 211       10.3437
 212       10.3437
 213       10.3957
 214       10.3957
 215       10.3957
 216       10.3957
 
  0.4166667E+00  0.0000000E+00  0.0000000E+00  0.1157407E-02
   1       -3.9065
   2       -3.5285
   3       -2.9175
   4       -2.8690
   5       -2.8689
   6       -2.8392
   7       -2.8392
   8       -2.8392
   9       -2.8391
  10       -2.8344
  11       -2.7860
  12       -2.7628
  13       -2.7628
  14       -2.7180
  15       -2.6971
  16       -2.6971
  17       -2.6481
  18       -2.6481
  19       -2.6481
  20       -2.6481
  21       -2.5726
  22       -2.5726
  23       -2.3772
  24       -2.3772
  25       -2.3772
  26       -2.3772
  27       -2.2454
  28       -2.2453
  29       -2.2453
  30       -2.2453
  31       -2.2116
  32       -2.2116
  33       -2.2116
  34       -2.2116
  35       -2.1830
  36       -2.1830
  37       -2.1830
  38       -2.1830
  39       -2.1682
  40       -2.1682
  41       -2.1682
  42       -2.1681
  43       -2.1208
  44       -2.1208
  45       -2.1208
  46       -2.1208
  47       -1.8935
  48       -1.8723
  49       -1.8723
  50       -1.8723
  51       -1.8722
  52       -1.8283
  53       -1.8283
  54       -1.8282
  55       -1.8282
  56       -1.8237
  57       -1.8229
  58       -1.8229
  59       -1.8229
  60       -1.8187
  61       -1.8187
  62       -1.8187
  63       -1.8180
  64       -1.7586
  65       -1.7297
  66       -1.7297
  67       -1.7297
  68       -1.7297
  69       -1.6836
  70       -1.6836
  71       -1.6835
  72       -1.6835
  73       -1.5931
  74       -1.5931
  75       -1.5931
  76       -1.5931
  77       -1.4723
  78       -1.4723
  79       -1.4723
  80       -1.4722
  81       -1.4541
  82       -1.4541
  83       -1.4277
  84       -1.4277
  85       -1.4277
  86       -1.4277
  87       -1.3387
  88       -1.3387
  89       -1.3387
  90       -1.3387
  91       -1.3142
  92       -1.3142
  93       -0.9144
  94       -0.8191
  95       -0.8190
  96       -0.8190
  97       -0.8189
  98       -0.8141
  99       -0.8141
 100       -0.8134
 101       -0.8132
 102       -0.8130
 103       -0.8129
 104       -0.8129
 105       -0.8058
 106       -0.8057
 107       -0.8056
 108       -0.8056
 109       -0.7315
 110       -0.7315
 111       -0.7315
 112       -0.7315
 113       -0.6986
 114       -0.6986
 115       -0.6986
 116       -0.6985
 117       -0.6731
 118       -0.6731
 119       -0.6731
 120       -0.6731
 121       -0.5990
 122       -0.5548
 123       -0.5548
 124       -0.5548
 125       -0.5548
 126       -0.5373
 127       -0.4496
 128       -0.4496
 129       -0.4496
 130       -0.4496
 131       -0.3860
 132       -0.3860
 133       -0.3468
 134       -0.3468
 135       -0.2846
 136       -0.2845
 137       -0.2845
 138       -0.2845
 139       -0.2145
 140       -0.2145
 141       -0.2145
 142       -0.2145
 143       -0.2108
 144       -0.2108
 145       -0.1796
 146       -0.1796
 147       -0.1287
 148       -0.1286
 149       -0.1286
 150       -0.1286
 151       -0.1169
 152       -0.0510
 153       -0.0180
 154       -0.0180
 155       -0.0180
 156       -0.0180
 157       -0.0058
 158       -0.0058
 159        0.2403
 160        0.2408
 161        0.2410
 162        0.2415
 163        0.3573
 164        0.3573
 165        0.3573
 166        0.3573
 167        0.8496
 168        0.8496
 169        0.8496
 170        0.8496
 171        1.4941
 172        2.5184
 173        2.5185
 174        2.5185
 175        2.5185
 176        2.5970
 177        2.5971
 178        2.5971
 179        2.5971
 180        2.6180
 181        4.7783
 182        4.7783
 183        4.7783
 184        4.7783
 185        5.6886
 186        5.6886
 187        5.9437
 188        5.9437
 189        5.9437
 190        5.9437
 191        6.4595
 192        6.4595
 193        7.6511
 194        7.6511
 195        7.6511
 196        7.6511
 197        8.6987
 198        8.6987
 199        8.6987
 200        8.6987
 201        9.4344
 202        9.4344
 203        9.4344
 204        9.4344
 205        9.4348
 206        9.4348
 207        9.5172
 208        9.5172
 209       10.0064
 210       10.0064
 211       10.0064
 212       10.0064
 213       10.5212
 214       10.5212
 215       10.5212
 216       10.5212
 
  0.5000000E+00  0.0000000E+00  0.0000000E+00  0.5787037E-03
   1       -3.7301
   2       -3.7277
   3       -2.8549
   4       -2.8530
   5       -2.7874
   6       -2.7867
   7       -2.7855
   8       -2.7848
   9       -2.7812
  10       -2.7793
  11       -2.7518
  12       -2.7518
  13       -2.7516
  14       -2.7514
  15       -2.7498
  16       -2.7496
  17       -2.7495
  18       -2.7495
  19       -2.6765
  20       -2.6764
  21       -2.6744
  22       -2.6744
  23       -2.2815
  24       -2.2808
  25       -2.2798
  26       -2.2798
  27       -2.2792
  28       -2.2792
  29       -2.2783
  30       -2.2776
  31       -2.2045
  32       -2.2021
  33       -2.2021
  34       -2.2021
  35       -2.2019
  36       -2.2019
  37       -2.2019
  38       -2.1996
  39       -2.1697
  40       -2.1694
  41       -2.1694
  42       -2.1686
  43       -2.1682
  44       -2.1674
  45       -2.1674
  46       -2.1671
  47       -1.8622
  48       -1.8616
  49       -1.8616
  50       -1.8611
  51       -1.8611
  52       -1.8606
  53       -1.8606
  54       -1.8600
  55       -1.8233
  56       -1.8219
  57       -1.8208
  58       -1.8202
  59       -1.8202
  60       -1.8200
  61       -1.8196
  62       -1.8193
  63       -1.8193
  64       -1.8175
  65       -1.7066
  66       -1.7063
  67       -1.7063
  68       -1.7063
  69       -1.7059
  70       -1.7059
  71       -1.7058
  72       -1.7056
  73       -1.5240
  74       -1.5238
  75       -1.5238
  76       -1.5229
  77       -1.5229
  78       -1.5221
  79       -1.5221
  80       -1.5219
  81       -1.4114
  82       -1.4110
  83       -1.4110
  84       -1.4100
  85       -1.4095
  86       -1.4086
  87       -1.4086
  88       -1.4081
  89       -1.3903
  90       -1.3903
  91       -1.3885
  92       -1.3885
  93       -0.8658
  94       -0.8647
  95       -0.8118
  96       -0.8118
  97       -0.8116
  98       -0.8114
  99       -0.8113
 100       -0.8111
 101       -0.8110
 102       -0.8110
 103       -0.6974
 104       -0.6973
 105       -0.6967
 106       -0.6967
 107       -0.6965
 108       -0.6965
 109       -0.6960
 110       -0.6958
 111       -0.6311
 112       -0.6306
 113       -0.6306
 114       -0.6304
 115       -0.6302
 116       -0.6298
 117       -0.6298
 118       -0.6292
 119       -0.6228
 120       -0.6222
 121       -0.6222
 122       -0.6221
 123       -0.6217
 124       -0.6215
 125       -0.6215
 126       -0.6206
 127       -0.5973
 128       -0.5973
 129       -0.5961
 130       -0.5961
 131       -0.5710
 132       -0.5694
 133       -0.2601
 134       -0.2600
 135       -0.2599
 136       -0.2597
 137       -0.2033
 138       -0.2028
 139       -0.2028
 140       -0.2027
 141       -0.2020
 142       -0.2018
 143       -0.2018
 144       -0.2013
 145       -0.1149
 146       -0.1149
 147       -0.1140
 148       -0.1139
 149       -0.1135
 150       -0.1134
 151       -0.1126
 152       -0.1126
 153       -0.1035
 154       -0.1035
 155       -0.1029
 156       -0.1029
 157       -0.0820
 158       -0.0818
 159        0.2403
 160        0.2409
 161        0.2409
 162        0.2415
 163        0.5948
 164        0.5948
 165        0.5955
 166        0.5955
 167        0.5955
 168        0.5955
 169        0.5962
 170        0.5962
 171        2.0475
 172        2.0483
 173        2.5529
 174        2.5540
 175        2.5543
 176        2.5543
 177        2.5551
 178        2.5551
 179        2.5555
 180        2.5566
 181        5.3445
 182        5.3445
 183        5.3445
 184        5.3458
 185        5.3466
 186        5.3479
 187        5.3479
 188        5.3479
 189        6.0561
 190        6.0561
 191        6.0584
 192        6.0584
 193        8.1471
 194        8.1471
 195        8.1474
 196        8.1485
 197        8.1494
 198        8.1505
 199        8.1508
 200        8.1508
 201        9.4718
 202        9.4721
 203        9.4721
 204        9.4724
 205        9.7004
 206        9.7004
 207        9.7015
 208        9.7017
 209        9.7022
 210        9.7024
 211        9.7035
 212        9.7035
 213       10.6649
 214       10.6652
 215       10.6656
 216       10.6657
 
  0.0000000E+00  0.8333333E-01  0.0000000E+00  0.2314815E-02
   1       -4.3139
   2       -3.0734
   3       -3.0713
   4       -3.0713
   5       -3.0372
   6       -3.0371
   7       -3.0371
   8       -3.0371
   9       -2.9570
  10       -2.9543
  11       -2.9543
  12       -2.7383
  13       -2.6296
  14       -2.6283
  15       -2.6283
  16       -2.6271
  17       -2.6031
  18       -2.4067
  19       -2.4066
  20       -2.4065
  21       -2.3844
  22       -2.3833
  23       -2.3833
  24       -2.3822
  25       -2.3157
  26       -2.3144
  27       -2.3143
  28       -2.3130
  29       -2.2300
  30       -2.1555