       N       E                     dE             d eps       ncg     rms          rms(c)
DAV:   1     0.427221755518E+04    0.42722E+04   -0.21277E+05 84696   0.225E+03
DAV:   2     0.121662794953E+03   -0.41506E+04   -0.39586E+04 84672   0.542E+02
DAV:   3    -0.934233214680E+02   -0.21509E+03   -0.20550E+03 88824   0.150E+02
DAV:   4    -0.975651252318E+02   -0.41418E+01   -0.41157E+01 91240   0.199E+01
DAV:   5    -0.975870977494E+02   -0.21973E-01   -0.21949E-01 90040   0.119E+00    0.158E+01
DAV:   6    -0.907331343323E+02    0.68540E+01   -0.25274E+01 89424   0.194E+01    0.285E+00
DAV:   7    -0.905614075002E+02    0.17173E+00   -0.46131E-01 88312   0.169E+00    0.153E+00
DAV:   8    -0.904779977545E+02    0.83410E-01   -0.36672E-02 89304   0.757E-01    0.118E-01
DAV:   9    -0.904789452387E+02   -0.94748E-03   -0.20778E-03 90192   0.139E-01    0.736E-02
DAV:  10    -0.904788344048E+02    0.11083E-03   -0.17324E-04 88688   0.408E-02    0.939E-03
DAV:  11    -0.904788289275E+02    0.54772E-05   -0.56804E-06 90624   0.697E-03    0.240E-03
DAV:  12    -0.904788255447E+02    0.33829E-05   -0.20731E-07 89040   0.194E-03    0.749E-04
DAV:  13    -0.904788232862E+02    0.22585E-05   -0.42498E-08 76944   0.722E-04    0.906E-05
DAV:  14    -0.904788230269E+02    0.25929E-06   -0.10068E-09 46992   0.135E-04    0.553E-05
DAV:  15    -0.904788230349E+02   -0.80181E-08    0.24588E-10 46624   0.586E-05
   1 F= -.90478823E+02 E0= -.90478507E+02  d E =-.631219E-03
