 vasp.4.6.28 25Jul05 complex 
 executed on             LinuxIFC date 2017.01.11  09:11:08
 running on    8 nodes
 distr:  one band on    1 nodes,    8 groups


--------------------------------------------------------------------------------------------------------


 INCAR:
 POTCAR:   PAW_PBE Ag 06Sep2000                   
 POTCAR:   PAW_PBE Ag 06Sep2000                   
   VRHFIN =Ag : s1 d10                                                          
   LEXCH  = PE                                                                  
   EATOM  =  1037.4134 eV,   76.2477 Ry                                         
                                                                                
   TITEL  = PAW_PBE Ag 06Sep2000                                                
   LULTRA =        F    use ultrasoft PP ?                                      
   IUNSCR =        1    unscreen: 0-lin 1-nonlin 2-no                           
   RPACOR =    2.000    partial core radius                                     
   POMASS =  107.868; ZVAL   =   11.000    mass and valenz                      
   RCORE  =    2.400    outmost cutoff radius                                   
   RWIGS  =    2.840; RWIGS  =    1.503    wigner-seitz radius (au A)           
   ENMAX  =  249.846; ENMIN  =  187.385 eV                                      
   RCLOC  =    1.962    cutoff for local pot                                    
   LCOR   =        T    correct aug charges                                     
   LPAW   =        T    paw PP                                                  
   EAUG   =  412.496                                                            
   DEXC   =    -.047                                                            
   RMAX   =    2.917    core radius for proj-oper                               
   RAUG   =    1.300    factor for augmentation sphere                          
   RDEP   =    2.416    radius for radial grids                                 
   QCUT   =   -4.285; QGAM   =    8.570    optimization parameters              
                                                                                
   Description                                                                  
     l     E      TYP  RCUT    TYP  RCUT                                        
     2   .000     23  2.400                                                     
     2   .000     23  2.400                                                     
     0   .000     23  2.400                                                     
     0   .000     23  2.400                                                     
     1  -.200     23  2.400                                                     
     1  1.500     23  2.400                                                     
     3   .000      7   .000                                                     
  local pseudopotential read in
  partial core-charges read in
  atomic valenz-charges read in
  non local Contribution for L=           2  read in
    real space projection operators read in
  non local Contribution for L=           2  read in
    real space projection operators read in
  non local Contribution for L=           0  read in
    real space projection operators read in
  non local Contribution for L=           0  read in
    real space projection operators read in
  non local Contribution for L=           1  read in
    real space projection operators read in
  non local Contribution for L=           1  read in
    real space projection operators read in
    PAW grid and wavefunctions read in
 
   number of l-projection  operators is LMAX  =           6
   number of lm-projection operators is LMMAX =          18
 

 ----------------------------------------------------------------------------- 
|                                                                             |
|  ADVICE TO THIS USER RUNNING 'VASP/VAMP'   (HEAR YOUR MASTER'S VOICE ...):  |
|                                                                             |
|      You have a (more or less) 'large supercell' and for larger cells       |
|      it might be more efficient to use real space projection operators      |
|      So try LREAL= Auto  in the INCAR   file.                               |
|      Mind: If you want to do an extremely accurate calculations keep the    |
|      reciprocal projection scheme          (i.e. LREAL=.FALSE.)             |
|                                                                             |
 ----------------------------------------------------------------------------- 

 PAW_PBE Ag 06Sep2000                   :
 energy of atom  1       EATOM=-1037.4134
 kinetic energy error for atom=    0.0010 (will be added to EATOM!!)
 
 EXHCAR: internal setup
 exchange correlation table for  LEXCH =        8
   RHO(1)=    0.500       N(1)  =     2000
   RHO(2)=  100.500       N(2)  =     4000
 
 POSCAR: Ag                                      
  positions in direct lattice
  No initial velocities read in
 


--------------------------------------------------------------------------------------------------------


 ion  position               nearest neighbor table
   1  0.001  0.000  0.000-   9 2.94  11 2.94  17 2.94  21 2.94  25 2.94  27 2.94  29 2.94  31 2.94
                            10 2.95  18 2.95  12 2.95  22 2.95
   2  0.500  0.000  0.000-   9 2.94  10 2.94  11 2.94  12 2.94  17 2.94  18 2.94  21 2.94  22 2.94
                            26 2.94  28 2.94  30 2.94  32 2.94
   3  0.000  0.500  0.000-   9 2.94  10 2.94  11 2.94  12 2.94  19 2.94  20 2.94  23 2.94  24 2.94
                            25 2.94  27 2.94  29 2.94  31 2.94
   4  0.500  0.500  0.000-   9 2.94  10 2.94  11 2.94  12 2.94  19 2.94  20 2.94  23 2.94  24 2.94
                            26 2.94  28 2.94  30 2.94  32 2.94
   5  0.000  0.000  0.500-  13 2.94  14 2.94  15 2.94  16 2.94  17 2.94  18 2.94  21 2.94  22 2.94
                            25 2.94  27 2.94  29 2.94  31 2.94
   6  0.500  0.000  0.500-  13 2.94  14 2.94  15 2.94  16 2.94  17 2.94  18 2.94  21 2.94  22 2.94
                            26 2.94  28 2.94  30 2.94  32 2.94
   7  0.000  0.500  0.500-  13 2.94  14 2.94  15 2.94  16 2.94  19 2.94  20 2.94  23 2.94  24 2.94
                            25 2.94  27 2.94  29 2.94  31 2.94
   8  0.500  0.500  0.500-  13 2.94  14 2.94  15 2.94  16 2.94  19 2.94  20 2.94  23 2.94  24 2.94
                            26 2.94  28 2.94  30 2.94  32 2.94
   9  0.250  0.250  0.000-   1 2.94   2 2.94   3 2.94   4 2.94  17 2.94  19 2.94  21 2.94  23 2.94
                            25 2.94  26 2.94  29 2.94  30 2.94
  10  0.750  0.250  0.000-   2 2.94   3 2.94   4 2.94  18 2.94  20 2.94  22 2.94  24 2.94  25 2.94
                            26 2.94  29 2.94  30 2.94   1 2.95
  11  0.250  0.750  0.000-   1 2.94   2 2.94   3 2.94   4 2.94  17 2.94  19 2.94  21 2.94  23 2.94
                            27 2.94  28 2.94  31 2.94  32 2.94
  12  0.750  0.750  0.000-   2 2.94   3 2.94   4 2.94  18 2.94  20 2.94  22 2.94  24 2.94  27 2.94
                            28 2.94  31 2.94  32 2.94   1 2.95
  13  0.250  0.250  0.500-   5 2.94   6 2.94   7 2.94   8 2.94  17 2.94  19 2.94  21 2.94  23 2.94
                            25 2.94  26 2.94  29 2.94  30 2.94
  14  0.750  0.250  0.500-   5 2.94   6 2.94   7 2.94   8 2.94  18 2.94  20 2.94  22 2.94  24 2.94
                            25 2.94  26 2.94  29 2.94  30 2.94
  15  0.250  0.750  0.500-   5 2.94   6 2.94   7 2.94   8 2.94  17 2.94  19 2.94  21 2.94  23 2.94
                            27 2.94  28 2.94  31 2.94  32 2.94
  16  0.750  0.750  0.500-   5 2.94   6 2.94   7 2.94   8 2.94  18 2.94  20 2.94  22 2.94  24 2.94
                            27 2.94  28 2.94  31 2.94  32 2.94
  17  0.250  0.000  0.250-   1 2.94   2 2.94   5 2.94   6 2.94   9 2.94  11 2.94  13 2.94  15 2.94
                            25 2.94  26 2.94  27 2.94  28 2.94
  18  0.750  0.000  0.250-   2 2.94   5 2.94   6 2.94  10 2.94  12 2.94  14 2.94  16 2.94  25 2.94
                            26 2.94  27 2.94  28 2.94   1 2.95
  19  0.250  0.500  0.250-   3 2.94   4 2.94   7 2.94   8 2.94   9 2.94  11 2.94  13 2.94  15 2.94
                            25 2.94  26 2.94  27 2.94  28 2.94
  20  0.750  0.500  0.250-   3 2.94   4 2.94   7 2.94   8 2.94  10 2.94  12 2.94  14 2.94  16 2.94
                            25 2.94  26 2.94  27 2.94  28 2.94
  21  0.250  0.000  0.750-   1 2.94   2 2.94   5 2.94   6 2.94   9 2.94  11 2.94  13 2.94  15 2.94
                            29 2.94  30 2.94  31 2.94  32 2.94
  22  0.750  0.000  0.750-   2 2.94   5 2.94   6 2.94  10 2.94  12 2.94  14 2.94  16 2.94  29 2.94
                            30 2.94  31 2.94  32 2.94   1 2.95
  23  0.250  0.500  0.750-   3 2.94   4 2.94   7 2.94   8 2.94   9 2.94  11 2.94  13 2.94  15 2.94
                            29 2.94  30 2.94  31 2.94  32 2.94
  24  0.750  0.500  0.750-   3 2.94   4 2.94   7 2.94   8 2.94  10 2.94  12 2.94  14 2.94  16 2.94
                            29 2.94  30 2.94  31 2.94  32 2.94
  25  0.000  0.250  0.250-   3 2.94   5 2.94   7 2.94   9 2.94  10 2.94  13 2.94  14 2.94  17 2.94
                            18 2.94  19 2.94  20 2.94   1 2.94
  26  0.500  0.250  0.250-   2 2.94   4 2.94   6 2.94   8 2.94   9 2.94  10 2.94  13 2.94  14 2.94
                            17 2.94  18 2.94  19 2.94  20 2.94
  27  0.000  0.750  0.250-   3 2.94   5 2.94   7 2.94  11 2.94  12 2.94  15 2.94  16 2.94  17 2.94
                            18 2.94  19 2.94  20 2.94   1 2.94
  28  0.500  0.750  0.250-   2 2.94   4 2.94   6 2.94   8 2.94  11 2.94  12 2.94  15 2.94  16 2.94
                            17 2.94  18 2.94  19 2.94  20 2.94
  29  0.000  0.250  0.750-   3 2.94   5 2.94   7 2.94   9 2.94  10 2.94  13 2.94  14 2.94  21 2.94
                            22 2.94  23 2.94  24 2.94   1 2.94
  30  0.500  0.250  0.750-   2 2.94   4 2.94   6 2.94   8 2.94   9 2.94  10 2.94  13 2.94  14 2.94
                            21 2.94  22 2.94  23 2.94  24 2.94
  31  0.000  0.750  0.750-   3 2.94   5 2.94   7 2.94  11 2.94  12 2.94  15 2.94  16 2.94  21 2.94
                            22 2.94  23 2.94  24 2.94   1 2.94
  32  0.500  0.750  0.750-   2 2.94   4 2.94   6 2.94   8 2.94  11 2.94  12 2.94  15 2.94  16 2.94
                            21 2.94  22 2.94  23 2.94  24 2.94
 
  LATTYP: Found a simple cubic cell.
 ALAT       =     8.3264495632
  
  Lattice vectors:
  
 A1 = (   8.3264495632,   0.0000000000,   0.0000000000)
 A2 = (   0.0000000000,   8.3264495632,   0.0000000000)
 A3 = (   0.0000000000,   0.0000000000,   8.3264495632)
 Subroutine PRICEL returns:
 Original cell was already a primitive cell.
 

Analysis of symmetry for initial positions (statically):

 Routine SETGRP: Setting up the symmetry group for a 
 simple cubic supercell.


 Subroutine GETGRP returns: Found  8 space group operations
 (whereof  8 operations were pure point group operations)
 out of a pool of 48 trial point group operations.


The static configuration has the point symmetry C_4v.

Analysis of symmetry for dynamics (positions and initial velocities):

 Subroutine DYNSYM returns: Found  8 space group operations
 (whereof  8 operations were pure point group operations)
 out of a pool of  8 trial space group operations
 (whereof  8 operations were pure point group operations)
 and found also     1 'primitive' translations


The dynamic configuration has the point symmetry C_4v.
 
 
 KPOINTS: Automatic mesh                          

Automatic generation of k-mesh.
 
 Subroutine IBZKPT returns following result:
 ===========================================
 
 Found    196 irreducible k-points:
 
 Following reciprocal coordinates:
            Coordinates               Weight
  0.000000  0.000000  0.000000      1.000000
  0.083333  0.000000  0.000000      2.000000
  0.166667  0.000000  0.000000      2.000000
  0.250000  0.000000  0.000000      2.000000
  0.333333  0.000000  0.000000      2.000000
  0.416667  0.000000  0.000000      2.000000
  0.500000  0.000000  0.000000      1.000000
  0.000000  0.083333  0.000000      4.000000
  0.083333  0.083333  0.000000      8.000000
  0.166667  0.083333  0.000000      8.000000
  0.250000  0.083333  0.000000      8.000000
  0.333333  0.083333  0.000000      8.000000
  0.416667  0.083333  0.000000      8.000000
  0.500000  0.083333  0.000000      4.000000
  0.000000  0.166667  0.000000      4.000000
  0.083333  0.166667  0.000000      8.000000
  0.166667  0.166667  0.000000      8.000000
  0.250000  0.166667  0.000000      8.000000
  0.333333  0.166667  0.000000      8.000000
  0.416667  0.166667  0.000000      8.000000
  0.500000  0.166667  0.000000      4.000000
  0.000000  0.250000  0.000000      4.000000
  0.083333  0.250000  0.000000      8.000000
  0.166667  0.250000  0.000000      8.000000
  0.250000  0.250000  0.000000      8.000000
  0.333333  0.250000  0.000000      8.000000
  0.416667  0.250000  0.000000      8.000000
  0.500000  0.250000  0.000000      4.000000
  0.000000  0.333333  0.000000      4.000000
  0.083333  0.333333  0.000000      8.000000
  0.166667  0.333333  0.000000      8.000000
  0.250000  0.333333  0.000000      8.000000
  0.333333  0.333333  0.000000      8.000000
  0.416667  0.333333  0.000000      8.000000
  0.500000  0.333333  0.000000      4.000000
  0.000000  0.416667  0.000000      4.000000
  0.083333  0.416667  0.000000      8.000000
  0.166667  0.416667  0.000000      8.000000
  0.250000  0.416667  0.000000      8.000000
  0.333333  0.416667  0.000000      8.000000
  0.416667  0.416667  0.000000      8.000000
  0.500000  0.416667  0.000000      4.000000
  0.000000  0.500000  0.000000      2.000000
  0.083333  0.500000  0.000000      4.000000
  0.166667  0.500000  0.000000      4.000000
  0.250000  0.500000  0.000000      4.000000
  0.333333  0.500000  0.000000      4.000000
  0.416667  0.500000  0.000000      4.000000
  0.500000  0.500000  0.000000      2.000000
  0.000000  0.083333  0.083333      4.000000
  0.083333  0.083333  0.083333      8.000000
  0.166667  0.083333  0.083333      8.000000
  0.250000  0.083333  0.083333      8.000000
  0.333333  0.083333  0.083333      8.000000
  0.416667  0.083333  0.083333      8.000000
  0.500000  0.083333  0.083333      4.000000
  0.000000  0.166667  0.083333      8.000000
  0.083333  0.166667  0.083333     16.000000
  0.166667  0.166667  0.083333     16.000000
  0.250000  0.166667  0.083333     16.000000
  0.333333  0.166667  0.083333     16.000000
  0.416667  0.166667  0.083333     16.000000
  0.500000  0.166667  0.083333      8.000000
  0.000000  0.250000  0.083333      8.000000
  0.083333  0.250000  0.083333     16.000000
  0.166667  0.250000  0.083333     16.000000
  0.250000  0.250000  0.083333     16.000000
  0.333333  0.250000  0.083333     16.000000
  0.416667  0.250000  0.083333     16.000000
  0.500000  0.250000  0.083333      8.000000
  0.000000  0.333333  0.083333      8.000000
  0.083333  0.333333  0.083333     16.000000
  0.166667  0.333333  0.083333     16.000000
  0.250000  0.333333  0.083333     16.000000
  0.333333  0.333333  0.083333     16.000000
  0.416667  0.333333  0.083333     16.000000
  0.500000  0.333333  0.083333      8.000000
  0.000000  0.416667  0.083333      8.000000
  0.083333  0.416667  0.083333     16.000000
  0.166667  0.416667  0.083333     16.000000
  0.250000  0.416667  0.083333     16.000000
  0.333333  0.416667  0.083333     16.000000
  0.416667  0.416667  0.083333     16.000000
  0.500000  0.416667  0.083333      8.000000
  0.000000  0.500000  0.083333      4.000000
  0.083333  0.500000  0.083333      8.000000
  0.166667  0.500000  0.083333      8.000000
  0.250000  0.500000  0.083333      8.000000
  0.333333  0.500000  0.083333      8.000000
  0.416667  0.500000  0.083333      8.000000
  0.500000  0.500000  0.083333      4.000000
  0.000000  0.166667  0.166667      4.000000
  0.083333  0.166667  0.166667      8.000000
  0.166667  0.166667  0.166667      8.000000
  0.250000  0.166667  0.166667      8.000000
  0.333333  0.166667  0.166667      8.000000
  0.416667  0.166667  0.166667      8.000000
  0.500000  0.166667  0.166667      4.000000
  0.000000  0.250000  0.166667      8.000000
  0.083333  0.250000  0.166667     16.000000
  0.166667  0.250000  0.166667     16.000000
  0.250000  0.250000  0.166667     16.000000
  0.333333  0.250000  0.166667     16.000000
  0.416667  0.250000  0.166667     16.000000
  0.500000  0.250000  0.166667      8.000000
  0.000000  0.333333  0.166667      8.000000
  0.083333  0.333333  0.166667     16.000000
  0.166667  0.333333  0.166667     16.000000
  0.250000  0.333333  0.166667     16.000000
  0.333333  0.333333  0.166667     16.000000
  0.416667  0.333333  0.166667     16.000000
  0.500000  0.333333  0.166667      8.000000
  0.000000  0.416667  0.166667      8.000000
  0.083333  0.416667  0.166667     16.000000
  0.166667  0.416667  0.166667     16.000000
  0.250000  0.416667  0.166667     16.000000
  0.333333  0.416667  0.166667     16.000000
  0.416667  0.416667  0.166667     16.000000
  0.500000  0.416667  0.166667      8.000000
  0.000000  0.500000  0.166667      4.000000
  0.083333  0.500000  0.166667      8.000000
  0.166667  0.500000  0.166667      8.000000
  0.250000  0.500000  0.166667      8.000000
  0.333333  0.500000  0.166667      8.000000
  0.416667  0.500000  0.166667      8.000000
  0.500000  0.500000  0.166667      4.000000
  0.000000  0.250000  0.250000      4.000000
  0.083333  0.250000  0.250000      8.000000
  0.166667  0.250000  0.250000      8.000000
  0.250000  0.250000  0.250000      8.000000
  0.333333  0.250000  0.250000      8.000000
  0.416667  0.250000  0.250000      8.000000
  0.500000  0.250000  0.250000      4.000000
  0.000000  0.333333  0.250000      8.000000
  0.083333  0.333333  0.250000     16.000000
  0.166667  0.333333  0.250000     16.000000
  0.250000  0.333333  0.250000     16.000000
  0.333333  0.333333  0.250000     16.000000
  0.416667  0.333333  0.250000     16.000000
  0.500000  0.333333  0.250000      8.000000
  0.000000  0.416667  0.250000      8.000000
  0.083333  0.416667  0.250000     16.000000
  0.166667  0.416667  0.250000     16.000000
  0.250000  0.416667  0.250000     16.000000
  0.333333  0.416667  0.250000     16.000000
  0.416667  0.416667  0.250000     16.000000
  0.500000  0.416667  0.250000      8.000000
  0.000000  0.500000  0.250000      4.000000
  0.083333  0.500000  0.250000      8.000000
  0.166667  0.500000  0.250000      8.000000
  0.250000  0.500000  0.250000      8.000000
  0.333333  0.500000  0.250000      8.000000
  0.416667  0.500000  0.250000      8.000000
  0.500000  0.500000  0.250000      4.000000
  0.000000  0.333333  0.333333      4.000000
  0.083333  0.333333  0.333333      8.000000
  0.166667  0.333333  0.333333      8.000000
  0.250000  0.333333  0.333333      8.000000
  0.333333  0.333333  0.333333      8.000000
  0.416667  0.333333  0.333333      8.000000
  0.500000  0.333333  0.333333      4.000000
  0.000000  0.416667  0.333333      8.000000
  0.083333  0.416667  0.333333     16.000000
  0.166667  0.416667  0.333333     16.000000
  0.250000  0.416667  0.333333     16.000000
  0.333333  0.416667  0.333333     16.000000
  0.416667  0.416667  0.333333     16.000000
  0.500000  0.416667  0.333333      8.000000
  0.000000  0.500000  0.333333      4.000000
  0.083333  0.500000  0.333333      8.000000
  0.166667  0.500000  0.333333      8.000000
  0.250000  0.500000  0.333333      8.000000
  0.333333  0.500000  0.333333      8.000000
  0.416667  0.500000  0.333333      8.000000
  0.500000  0.500000  0.333333      4.000000
  0.000000  0.416667  0.416667      4.000000
  0.083333  0.416667  0.416667      8.000000
  0.166667  0.416667  0.416667      8.000000
  0.250000  0.416667  0.416667      8.000000
  0.333333  0.416667  0.416667      8.000000
  0.416667  0.416667  0.416667      8.000000
  0.500000  0.416667  0.416667      4.000000
  0.000000  0.500000  0.416667      4.000000
  0.083333  0.500000  0.416667      8.000000
  0.166667  0.500000  0.416667      8.000000
  0.250000  0.500000  0.416667      8.000000
  0.333333  0.500000  0.416667      8.000000
  0.416667  0.500000  0.416667      8.000000
  0.500000  0.500000  0.416667      4.000000
  0.000000  0.500000  0.500000      1.000000
  0.083333  0.500000  0.500000      2.000000
  0.166667  0.500000  0.500000      2.000000
  0.250000  0.500000  0.500000      2.000000
  0.333333  0.500000  0.500000      2.000000
  0.416667  0.500000  0.500000      2.000000
  0.500000  0.500000  0.500000      1.000000
 
 Following cartesian coordinates:
            Coordinates               Weight
  0.000000  0.000000  0.000000      1.000000
  0.010008  0.000000  0.000000      2.000000
  0.020017  0.000000  0.000000      2.000000
  0.030025  0.000000  0.000000      2.000000
  0.040033  0.000000  0.000000      2.000000
  0.050041  0.000000  0.000000      2.000000
  0.060050  0.000000  0.000000      1.000000
  0.000000  0.010008  0.000000      4.000000
  0.010008  0.010008  0.000000      8.000000
  0.020017  0.010008  0.000000      8.000000
  0.030025  0.010008  0.000000      8.000000
  0.040033  0.010008  0.000000      8.000000
  0.050041  0.010008  0.000000      8.000000
  0.060050  0.010008  0.000000      4.000000
  0.000000  0.020017  0.000000      4.000000
  0.010008  0.020017  0.000000      8.000000
  0.020017  0.020017  0.000000      8.000000
  0.030025  0.020017  0.000000      8.000000
  0.040033  0.020017  0.000000      8.000000
  0.050041  0.020017  0.000000      8.000000
  0.060050  0.020017  0.000000      4.000000
  0.000000  0.030025  0.000000      4.000000
  0.010008  0.030025  0.000000      8.000000
  0.020017  0.030025  0.000000      8.000000
  0.030025  0.030025  0.000000      8.000000
  0.040033  0.030025  0.000000      8.000000
  0.050041  0.030025  0.000000      8.000000
  0.060050  0.030025  0.000000      4.000000
  0.000000  0.040033  0.000000      4.000000
  0.010008  0.040033  0.000000      8.000000
  0.020017  0.040033  0.000000      8.000000
  0.030025  0.040033  0.000000      8.000000
  0.040033  0.040033  0.000000      8.000000
  0.050041  0.040033  0.000000      8.000000
  0.060050  0.040033  0.000000      4.000000
  0.000000  0.050041  0.000000      4.000000
  0.010008  0.050041  0.000000      8.000000
  0.020017  0.050041  0.000000      8.000000
  0.030025  0.050041  0.000000      8.000000
  0.040033  0.050041  0.000000      8.000000
  0.050041  0.050041  0.000000      8.000000
  0.060050  0.050041  0.000000      4.000000
  0.000000  0.060050  0.000000      2.000000
  0.010008  0.060050  0.000000      4.000000
  0.020017  0.060050  0.000000      4.000000
  0.030025  0.060050  0.000000      4.000000
  0.040033  0.060050  0.000000      4.000000
  0.050041  0.060050  0.000000      4.000000
  0.060050  0.060050  0.000000      2.000000
  0.000000  0.010008  0.010008      4.000000
  0.010008  0.010008  0.010008      8.000000
  0.020017  0.010008  0.010008      8.000000
  0.030025  0.010008  0.010008      8.000000
  0.040033  0.010008  0.010008      8.000000
  0.050041  0.010008  0.010008      8.000000
  0.060050  0.010008  0.010008      4.000000
  0.000000  0.020017  0.010008      8.000000
  0.010008  0.020017  0.010008     16.000000
  0.020017  0.020017  0.010008     16.000000
  0.030025  0.020017  0.010008     16.000000
  0.040033  0.020017  0.010008     16.000000
  0.050041  0.020017  0.010008     16.000000
  0.060050  0.020017  0.010008      8.000000
  0.000000  0.030025  0.010008      8.000000
  0.010008  0.030025  0.010008     16.000000
  0.020017  0.030025  0.010008     16.000000
  0.030025  0.030025  0.010008     16.000000
  0.040033  0.030025  0.010008     16.000000
  0.050041  0.030025  0.010008     16.000000
  0.060050  0.030025  0.010008      8.000000
  0.000000  0.040033  0.010008      8.000000
  0.010008  0.040033  0.010008     16.000000
  0.020017  0.040033  0.010008     16.000000
  0.030025  0.040033  0.010008     16.000000
  0.040033  0.040033  0.010008     16.000000
  0.050041  0.040033  0.010008     16.000000
  0.060050  0.040033  0.010008      8.000000
  0.000000  0.050041  0.010008      8.000000
  0.010008  0.050041  0.010008     16.000000
  0.020017  0.050041  0.010008     16.000000
  0.030025  0.050041  0.010008     16.000000
  0.040033  0.050041  0.010008     16.000000
  0.050041  0.050041  0.010008     16.000000
  0.060050  0.050041  0.010008      8.000000
  0.000000  0.060050  0.010008      4.000000
  0.010008  0.060050  0.010008      8.000000
  0.020017  0.060050  0.010008      8.000000
  0.030025  0.060050  0.010008      8.000000
  0.040033  0.060050  0.010008      8.000000
  0.050041  0.060050  0.010008      8.000000
  0.060050  0.060050  0.010008      4.000000
  0.000000  0.020017  0.020017      4.000000
  0.010008  0.020017  0.020017      8.000000
  0.020017  0.020017  0.020017      8.000000
  0.030025  0.020017  0.020017      8.000000
  0.040033  0.020017  0.020017      8.000000
  0.050041  0.020017  0.020017      8.000000
  0.060050  0.020017  0.020017      4.000000
  0.000000  0.030025  0.020017      8.000000
  0.010008  0.030025  0.020017     16.000000
  0.020017  0.030025  0.020017     16.000000
  0.030025  0.030025  0.020017     16.000000
  0.040033  0.030025  0.020017     16.000000
  0.050041  0.030025  0.020017     16.000000
  0.060050  0.030025  0.020017      8.000000
  0.000000  0.040033  0.020017      8.000000
  0.010008  0.040033  0.020017     16.000000
  0.020017  0.040033  0.020017     16.000000
  0.030025  0.040033  0.020017     16.000000
  0.040033  0.040033  0.020017     16.000000
  0.050041  0.040033  0.020017     16.000000
  0.060050  0.040033  0.020017      8.000000
  0.000000  0.050041  0.020017      8.000000
  0.010008  0.050041  0.020017     16.000000
  0.020017  0.050041  0.020017     16.000000
  0.030025  0.050041  0.020017     16.000000
  0.040033  0.050041  0.020017     16.000000
  0.050041  0.050041  0.020017     16.000000
  0.060050  0.050041  0.020017      8.000000
  0.000000  0.060050  0.020017      4.000000
  0.010008  0.060050  0.020017      8.000000
  0.020017  0.060050  0.020017      8.000000
  0.030025  0.060050  0.020017      8.000000
  0.040033  0.060050  0.020017      8.000000
  0.050041  0.060050  0.020017      8.000000
  0.060050  0.060050  0.020017      4.000000
  0.000000  0.030025  0.030025      4.000000
  0.010008  0.030025  0.030025      8.000000
  0.020017  0.030025  0.030025      8.000000
  0.030025  0.030025  0.030025      8.000000
  0.040033  0.030025  0.030025      8.000000
  0.050041  0.030025  0.030025      8.000000
  0.060050  0.030025  0.030025      4.000000
  0.000000  0.040033  0.030025      8.000000
  0.010008  0.040033  0.030025     16.000000
  0.020017  0.040033  0.030025     16.000000
  0.030025  0.040033  0.030025     16.000000
  0.040033  0.040033  0.030025     16.000000
  0.050041  0.040033  0.030025     16.000000
  0.060050  0.040033  0.030025      8.000000
  0.000000  0.050041  0.030025      8.000000
  0.010008  0.050041  0.030025     16.000000
  0.020017  0.050041  0.030025     16.000000
  0.030025  0.050041  0.030025     16.000000
  0.040033  0.050041  0.030025     16.000000
  0.050041  0.050041  0.030025     16.000000
  0.060050  0.050041  0.030025      8.000000
  0.000000  0.060050  0.030025      4.000000
  0.010008  0.060050  0.030025      8.000000
  0.020017  0.060050  0.030025      8.000000
  0.030025  0.060050  0.030025      8.000000
  0.040033  0.060050  0.030025      8.000000
  0.050041  0.060050  0.030025      8.000000
  0.060050  0.060050  0.030025      4.000000
  0.000000  0.040033  0.040033      4.000000
  0.010008  0.040033  0.040033      8.000000
  0.020017  0.040033  0.040033      8.000000
  0.030025  0.040033  0.040033      8.000000
  0.040033  0.040033  0.040033      8.000000
  0.050041  0.040033  0.040033      8.000000
  0.060050  0.040033  0.040033      4.000000
  0.000000  0.050041  0.040033      8.000000
  0.010008  0.050041  0.040033     16.000000
  0.020017  0.050041  0.040033     16.000000
  0.030025  0.050041  0.040033     16.000000
  0.040033  0.050041  0.040033     16.000000
  0.050041  0.050041  0.040033     16.000000
  0.060050  0.050041  0.040033      8.000000
  0.000000  0.060050  0.040033      4.000000
  0.010008  0.060050  0.040033      8.000000
  0.020017  0.060050  0.040033      8.000000
  0.030025  0.060050  0.040033      8.000000
  0.040033  0.060050  0.040033      8.000000
  0.050041  0.060050  0.040033      8.000000
  0.060050  0.060050  0.040033      4.000000
  0.000000  0.050041  0.050041      4.000000
  0.010008  0.050041  0.050041      8.000000
  0.020017  0.050041  0.050041      8.000000
  0.030025  0.050041  0.050041      8.000000
  0.040033  0.050041  0.050041      8.000000
  0.050041  0.050041  0.050041      8.000000
  0.060050  0.050041  0.050041      4.000000
  0.000000  0.060050  0.050041      4.000000
  0.010008  0.060050  0.050041      8.000000
  0.020017  0.060050  0.050041      8.000000
  0.030025  0.060050  0.050041      8.000000
  0.040033  0.060050  0.050041      8.000000
  0.050041  0.060050  0.050041      8.000000
  0.060050  0.060050  0.050041      4.000000
  0.000000  0.060050  0.060050      1.000000
  0.010008  0.060050  0.060050      2.000000
  0.020017  0.060050  0.060050      2.000000
  0.030025  0.060050  0.060050      2.000000
  0.040033  0.060050  0.060050      2.000000
  0.050041  0.060050  0.060050      2.000000
  0.060050  0.060050  0.060050      1.000000
 


--------------------------------------------------------------------------------------------------------




 Dimension of arrays:
   k-Points           NKPTS =    196   number of bands    NBANDS=    216
   number of dos      NEDOS =    301   number of ions     NIONS =     32
   non local maximal  LDIM  =      6   non local SUM 2l+1 LMDIM =     18
   total plane-waves  NPLWV = 512000
   max r-space proj   IRMAX =      1   max aug-charges    IRDMAX= 349033
   dimension x,y,z NGX =    80 NGY =   80 NGZ =   80
   dimension x,y,z NGXF=   160 NGYF=  160 NGZF=  160
   support grid    NGXF=   320 NGYF=  320 NGZF=  320
   ions per type =              32
 NGX,Y,Z   is equivalent  to a cutoff of  15.97, 15.97, 15.97 a.u.
 NGXF,Y,Z  is equivalent  to a cutoff of  31.95, 31.95, 31.95 a.u.


 I would recommend the setting:
   dimension x,y,z NGX =    74 NGY =   74 NGZ =   74
 SYSTEM =  unknown system                          
 POSCAR =  Ag                                      

 Startparameter for this run:
   NWRITE =      2    write-flag & timer
   PREC   = accura    medium, high low
   ISTART =      0    job   : 0-new  1-cont  2-samecut
   ICHARG =      2    charge: 1-file 2-atom 10-const
   ISPIN  =      1    spin polarized calculation?
   LNONCOLLINEAR =      F non collinear calculations
   LSORBIT =      F    spin-orbit coupling
   INIWAV =      1    electr: 0-lowe 1-rand  2-diag
   LASPH  =      F    aspherical Exc in radial PAW
   METAGGA=      F    non-selfconsistent MetaGGA calc.

 Electronic Relaxation 1
   ENCUT  =  750.0 eV  55.12 Ry    7.42 a.u.  18.59 18.59 18.59*2*pi/ulx,y,z
   ENINI  =  750.0     initial cutoff
   ENAUG  =  412.5 eV  augmentation charge cutoff
   NELM   =     60;   NELMIN=  2; NELMDL=  0     # of ELM steps 
   EDIFF  = 0.1E-07   stopping-criterion for ELM
   LREAL  =      F    real-space projection
   LCOMPAT=      F    compatible to vasp.4.4
   LREAL_COMPAT= F    compatible to vasp.4.5.1-3
   GGA_COMPAT  = T    GGA compatible to vasp.4.4-vasp.4.6
   LMAXPAW     = -100 max onsite density
   LMAXMIX     =    2 max onsite mixed and CHGCAR
   VOSKOWN=      0    Vosko Wilk Nusair interpolation
   ROPT   =    0.00000
 Ionic relaxation
   EDIFFG = 0.1E-06   stopping-criterion for IOM
   NSW    =      0    number of steps for IOM
   NBLOCK =      1;   KBLOCK =      1    inner block; outer block 
   IBRION =     -1    ionic relax: 0-MD 1-quasi-New 2-CG
   NFREE  =      0    steps in history (QN), initial steepest desc. (CG)
   ISIF   =      2    stress and relaxation
   IWAVPR =     10    prediction:  0-non 1-charg 2-wave 3-comb
   ISYM   =      2    0-nonsym 1-usesym 2-fastsym
   LCORR  =      T    Harris-Foulkes like correction to forces

   POTIM  =   0.50    time-step for ionic-motion
   TEIN   =    0.0    initial temperature
   TEBEG  =    0.0;   TEEND  =   0.0 temperature during run
   SMASS  =  -3.00    Nose mass-parameter (am)
   estimated Nose-frequenzy (Omega)   =  0.10E-29 period in steps =****** mass=  -0.158E-26a.u.
   NPACO  =    256;   APACO  = 16.0  distance and # of slots for P.C.
   PSTRESS=    0.0 pullay stress

  Mass of Ions in am
   POMASS = 107.87
  Ionic Valenz
   ZVAL   =  11.00
  Atomic Wigner-Seitz radii
   RWIGS  =  -1.00
   NELECT =     352.0000    total number of electrons
   NUPDOWN=      -1.0000    fix difference up-down

 DOS related values:
   EMIN   =  10.00;   EMAX   =-10.00  energy-range for DOS
   ISMEAR =     0;   SIGMA  =   0.01  broadening in eV -4-tet -1-fermi 0-gaus

 Electronic relaxation 2 (details)
   IALGO  =     38    algorithm
   LDIAG  =      T    sub-space diagonalisation
   IMIX   =      4    mixing-type and parameters
     AMIX     =   0.40;   BMIX     =  1.00
     AMIX_MAG =   1.60;   BMIX_MAG =  1.00
     AMIN     =   0.10
     WC   =   100.;   INIMIX=   1;  MIXPRE=   1

 Intra band minimization:
   WEIMIN = 0.0000     energy-eigenvalue tresh-hold
   EBREAK =  0.12E-10  absolut break condition
   DEPER  =   0.30     relativ break condition  

   TIME   =   0.10     timestep for ELM

  volume/ion in A,a.u.               =      18.04       121.74
  Fermi-wavevector in a.u.,eV,Ry     =   1.388234 26.221044  1.927192

 Second variation
   LSECVAR=     F    do a second variation
 
 Write flags
   LWAVE  =      F    write WAVECAR
   LCHARG =      F    write CHGCAR
   LVTOT  =      F    write LOCPOT, local potential
   LELF   =      F    write electronic localiz. function (ELF)
   LORBIT =      0    0 simple, 1 ext, 2 COOP (PROOUT)


 Dipole corrections
   IDIPOL =      0    1-x, 2-y, 3-z
   LDIPOL =      F    correct potential



--------------------------------------------------------------------------------------------------------


 Static calculation
 charge density will be updated during run
 non-spin polarized calculation
 Variant of blocked Davidson
 Davidson routine will perform the subspace rotation
 performe sub-space diagonalisation
    after iterative eigenvector-optimisation
 modified Broyden-mixing scheme, WC =      100.0
 initial mixing is a Kerker type mixing with AMIX =  0.4000 and BMIX =      1.0000
 Hartree-type preconditioning will be used
 using additional bands           40
 reciprocal scheme for non local part
 use partial core corrections
 calculate Harris-corrections to forces 
   (improved forces if not selfconsistent)
 use gradient corrections 
 use of overlap-Matrix (Vanderbilt PP)
 Gauss-broadening in eV      SIGMA  =   0.01


--------------------------------------------------------------------------------------------------------


  energy-cutoff  :      750.00
  volume of cell :      577.27
      direct lattice vectors                 reciprocal lattice vectors
     8.326449563  0.000000000  0.000000000     0.120099208  0.000000000  0.000000000
     0.000000000  8.326449563  0.000000000     0.000000000  0.120099208  0.000000000
     0.000000000  0.000000000  8.326449563     0.000000000  0.000000000  0.120099208

  length of vectors
     8.326449563  8.326449563  8.326449563     0.120099208  0.120099208  0.120099208


 
 k-points in units of 2pi/SCALE and weight: Automatic mesh                          
   0.00000000  0.00000000  0.00000000       0.001
   0.01000827  0.00000000  0.00000000       0.001
   0.02001653  0.00000000  0.00000000       0.001
   0.03002480  0.00000000  0.00000000       0.001
   0.04003307  0.00000000  0.00000000       0.001
   0.05004134  0.00000000  0.00000000       0.001
   0.06004960  0.00000000  0.00000000       0.001
   0.00000000  0.01000827  0.00000000       0.002
   0.01000827  0.01000827  0.00000000       0.005
   0.02001653  0.01000827  0.00000000       0.005
   0.03002480  0.01000827  0.00000000       0.005
   0.04003307  0.01000827  0.00000000       0.005
   0.05004134  0.01000827  0.00000000       0.005
   0.06004960  0.01000827  0.00000000       0.002
   0.00000000  0.02001653  0.00000000       0.002
   0.01000827  0.02001653  0.00000000       0.005
   0.02001653  0.02001653  0.00000000       0.005
   0.03002480  0.02001653  0.00000000       0.005
   0.04003307  0.02001653  0.00000000       0.005
   0.05004134  0.02001653  0.00000000       0.005
   0.06004960  0.02001653  0.00000000       0.002
   0.00000000  0.03002480  0.00000000       0.002
   0.01000827  0.03002480  0.00000000       0.005
   0.02001653  0.03002480  0.00000000       0.005
   0.03002480  0.03002480  0.00000000       0.005
   0.04003307  0.03002480  0.00000000       0.005
   0.05004134  0.03002480  0.00000000       0.005
   0.06004960  0.03002480  0.00000000       0.002
   0.00000000  0.04003307  0.00000000       0.002
   0.01000827  0.04003307  0.00000000       0.005
   0.02001653  0.04003307  0.00000000       0.005
   0.03002480  0.04003307  0.00000000       0.005
   0.04003307  0.04003307  0.00000000       0.005
   0.05004134  0.04003307  0.00000000       0.005
   0.06004960  0.04003307  0.00000000       0.002
   0.00000000  0.05004134  0.00000000       0.002
   0.01000827  0.05004134  0.00000000       0.005
   0.02001653  0.05004134  0.00000000       0.005
   0.03002480  0.05004134  0.00000000       0.005
   0.04003307  0.05004134  0.00000000       0.005
   0.05004134  0.05004134  0.00000000       0.005
   0.06004960  0.05004134  0.00000000       0.002
   0.00000000  0.06004960  0.00000000       0.001
   0.01000827  0.06004960  0.00000000       0.002
   0.02001653  0.06004960  0.00000000       0.002
   0.03002480  0.06004960  0.00000000       0.002
   0.04003307  0.06004960  0.00000000       0.002
   0.05004134  0.06004960  0.00000000       0.002
   0.06004960  0.06004960  0.00000000       0.001
   0.00000000  0.01000827  0.01000827       0.002
   0.01000827  0.01000827  0.01000827       0.005
   0.02001653  0.01000827  0.01000827       0.005
   0.03002480  0.01000827  0.01000827       0.005
   0.04003307  0.01000827  0.01000827       0.005
   0.05004134  0.01000827  0.01000827       0.005
   0.06004960  0.01000827  0.01000827       0.002
   0.00000000  0.02001653  0.01000827       0.005
   0.01000827  0.02001653  0.01000827       0.009
   0.02001653  0.02001653  0.01000827       0.009
   0.03002480  0.02001653  0.01000827       0.009
   0.04003307  0.02001653  0.01000827       0.009
   0.05004134  0.02001653  0.01000827       0.009
   0.06004960  0.02001653  0.01000827       0.005
   0.00000000  0.03002480  0.01000827       0.005
   0.01000827  0.03002480  0.01000827       0.009
   0.02001653  0.03002480  0.01000827       0.009
   0.03002480  0.03002480  0.01000827       0.009
   0.04003307  0.03002480  0.01000827       0.009
   0.05004134  0.03002480  0.01000827       0.009
   0.06004960  0.03002480  0.01000827       0.005
   0.00000000  0.04003307  0.01000827       0.005
   0.01000827  0.04003307  0.01000827       0.009
   0.02001653  0.04003307  0.01000827       0.009
   0.03002480  0.04003307  0.01000827       0.009
   0.04003307  0.04003307  0.01000827       0.009
   0.05004134  0.04003307  0.01000827       0.009
   0.06004960  0.04003307  0.01000827       0.005
   0.00000000  0.05004134  0.01000827       0.005
   0.01000827  0.05004134  0.01000827       0.009
   0.02001653  0.05004134  0.01000827       0.009
   0.03002480  0.05004134  0.01000827       0.009
   0.04003307  0.05004134  0.01000827       0.009
   0.05004134  0.05004134  0.01000827       0.009
   0.06004960  0.05004134  0.01000827       0.005
   0.00000000  0.06004960  0.01000827       0.002
   0.01000827  0.06004960  0.01000827       0.005
   0.02001653  0.06004960  0.01000827       0.005
   0.03002480  0.06004960  0.01000827       0.005
   0.04003307  0.06004960  0.01000827       0.005
   0.05004134  0.06004960  0.01000827       0.005
   0.06004960  0.06004960  0.01000827       0.002
   0.00000000  0.02001653  0.02001653       0.002
   0.01000827  0.02001653  0.02001653       0.005
   0.02001653  0.02001653  0.02001653       0.005
   0.03002480  0.02001653  0.02001653       0.005
   0.04003307  0.02001653  0.02001653       0.005
   0.05004134  0.02001653  0.02001653       0.005
   0.06004960  0.02001653  0.02001653       0.002
   0.00000000  0.03002480  0.02001653       0.005
   0.01000827  0.03002480  0.02001653       0.009
   0.02001653  0.03002480  0.02001653       0.009
   0.03002480  0.03002480  0.02001653       0.009
   0.04003307  0.03002480  0.02001653       0.009
   0.05004134  0.03002480  0.02001653       0.009
   0.06004960  0.03002480  0.02001653       0.005
   0.00000000  0.04003307  0.02001653       0.005
   0.01000827  0.04003307  0.02001653       0.009
   0.02001653  0.04003307  0.02001653       0.009
   0.03002480  0.04003307  0.02001653       0.009
   0.04003307  0.04003307  0.02001653       0.009
   0.05004134  0.04003307  0.02001653       0.009
   0.06004960  0.04003307  0.02001653       0.005
   0.00000000  0.05004134  0.02001653       0.005
   0.01000827  0.05004134  0.02001653       0.009
   0.02001653  0.05004134  0.02001653       0.009
   0.03002480  0.05004134  0.02001653       0.009
   0.04003307  0.05004134  0.02001653       0.009
   0.05004134  0.05004134  0.02001653       0.009
   0.06004960  0.05004134  0.02001653       0.005
   0.00000000  0.06004960  0.02001653       0.002
   0.01000827  0.06004960  0.02001653       0.005
   0.02001653  0.06004960  0.02001653       0.005
   0.03002480  0.06004960  0.02001653       0.005
   0.04003307  0.06004960  0.02001653       0.005
   0.05004134  0.06004960  0.02001653       0.005
   0.06004960  0.06004960  0.02001653       0.002
   0.00000000  0.03002480  0.03002480       0.002
   0.01000827  0.03002480  0.03002480       0.005
   0.02001653  0.03002480  0.03002480       0.005
   0.03002480  0.03002480  0.03002480       0.005
   0.04003307  0.03002480  0.03002480       0.005
   0.05004134  0.03002480  0.03002480       0.005
   0.06004960  0.03002480  0.03002480       0.002
   0.00000000  0.04003307  0.03002480       0.005
   0.01000827  0.04003307  0.03002480       0.009
   0.02001653  0.04003307  0.03002480       0.009
   0.03002480  0.04003307  0.03002480       0.009
   0.04003307  0.04003307  0.03002480       0.009
   0.05004134  0.04003307  0.03002480       0.009
   0.06004960  0.04003307  0.03002480       0.005
   0.00000000  0.05004134  0.03002480       0.005
   0.01000827  0.05004134  0.03002480       0.009
   0.02001653  0.05004134  0.03002480       0.009
   0.03002480  0.05004134  0.03002480       0.009
   0.04003307  0.05004134  0.03002480       0.009
   0.05004134  0.05004134  0.03002480       0.009
   0.06004960  0.05004134  0.03002480       0.005
   0.00000000  0.06004960  0.03002480       0.002
   0.01000827  0.06004960  0.03002480       0.005
   0.02001653  0.06004960  0.03002480       0.005
   0.03002480  0.06004960  0.03002480       0.005
   0.04003307  0.06004960  0.03002480       0.005
   0.05004134  0.06004960  0.03002480       0.005
   0.06004960  0.06004960  0.03002480       0.002
   0.00000000  0.04003307  0.04003307       0.002
   0.01000827  0.04003307  0.04003307       0.005
   0.02001653  0.04003307  0.04003307       0.005
   0.03002480  0.04003307  0.04003307       0.005
   0.04003307  0.04003307  0.04003307       0.005
   0.05004134  0.04003307  0.04003307       0.005
   0.06004960  0.04003307  0.04003307       0.002
   0.00000000  0.05004134  0.04003307       0.005
   0.01000827  0.05004134  0.04003307       0.009
   0.02001653  0.05004134  0.04003307       0.009
   0.03002480  0.05004134  0.04003307       0.009
   0.04003307  0.05004134  0.04003307       0.009
   0.05004134  0.05004134  0.04003307       0.009
   0.06004960  0.05004134  0.04003307       0.005
   0.00000000  0.06004960  0.04003307       0.002
   0.01000827  0.06004960  0.04003307       0.005
   0.02001653  0.06004960  0.04003307       0.005
   0.03002480  0.06004960  0.04003307       0.005
   0.04003307  0.06004960  0.04003307       0.005
   0.05004134  0.06004960  0.04003307       0.005
   0.06004960  0.06004960  0.04003307       0.002
   0.00000000  0.05004134  0.05004134       0.002
   0.01000827  0.05004134  0.05004134       0.005
   0.02001653  0.05004134  0.05004134       0.005
   0.03002480  0.05004134  0.05004134       0.005
   0.04003307  0.05004134  0.05004134       0.005
   0.05004134  0.05004134  0.05004134       0.005
   0.06004960  0.05004134  0.05004134       0.002
   0.00000000  0.06004960  0.05004134       0.002
   0.01000827  0.06004960  0.05004134       0.005
   0.02001653  0.06004960  0.05004134       0.005
   0.03002480  0.06004960  0.05004134       0.005
   0.04003307  0.06004960  0.05004134       0.005
   0.05004134  0.06004960  0.05004134       0.005
   0.06004960  0.06004960  0.05004134       0.002
   0.00000000  0.06004960  0.06004960       0.001
   0.01000827  0.06004960  0.06004960       0.001
   0.02001653  0.06004960  0.06004960       0.001
   0.03002480  0.06004960  0.06004960       0.001
   0.04003307  0.06004960  0.06004960       0.001
   0.05004134  0.06004960  0.06004960       0.001
   0.06004960  0.06004960  0.06004960       0.001
 
 k-points in reciprocal lattice and weights: Automatic mesh                          
   0.00000000  0.00000000  0.00000000       0.001
   0.08333333  0.00000000  0.00000000       0.001
   0.16666667  0.00000000  0.00000000       0.001
   0.25000000  0.00000000  0.00000000       0.001
   0.33333333  0.00000000  0.00000000       0.001
   0.41666667  0.00000000  0.00000000       0.001
   0.50000000  0.00000000  0.00000000       0.001
   0.00000000  0.08333333  0.00000000       0.002
   0.08333333  0.08333333  0.00000000       0.005
   0.16666667  0.08333333  0.00000000       0.005
   0.25000000  0.08333333  0.00000000       0.005
   0.33333333  0.08333333  0.00000000       0.005
   0.41666667  0.08333333  0.00000000       0.005
   0.50000000  0.08333333  0.00000000       0.002
   0.00000000  0.16666667  0.00000000       0.002
   0.08333333  0.16666667  0.00000000       0.005
   0.16666667  0.16666667  0.00000000       0.005
   0.25000000  0.16666667  0.00000000       0.005
   0.33333333  0.16666667  0.00000000       0.005
   0.41666667  0.16666667  0.00000000       0.005
   0.50000000  0.16666667  0.00000000       0.002
   0.00000000  0.25000000  0.00000000       0.002
   0.08333333  0.25000000  0.00000000       0.005
   0.16666667  0.25000000  0.00000000       0.005
   0.25000000  0.25000000  0.00000000       0.005
   0.33333333  0.25000000  0.00000000       0.005
   0.41666667  0.25000000  0.00000000       0.005
   0.50000000  0.25000000  0.00000000       0.002
   0.00000000  0.33333333  0.00000000       0.002
   0.08333333  0.33333333  0.00000000       0.005
   0.16666667  0.33333333  0.00000000       0.005
   0.25000000  0.33333333  0.00000000       0.005
   0.33333333  0.33333333  0.00000000       0.005
   0.41666667  0.33333333  0.00000000       0.005
   0.50000000  0.33333333  0.00000000       0.002
   0.00000000  0.41666667  0.00000000       0.002
   0.08333333  0.41666667  0.00000000       0.005
   0.16666667  0.41666667  0.00000000       0.005
   0.25000000  0.41666667  0.00000000       0.005
   0.33333333  0.41666667  0.00000000       0.005
   0.41666667  0.41666667  0.00000000       0.005
   0.50000000  0.41666667  0.00000000       0.002
   0.00000000  0.50000000  0.00000000       0.001
   0.08333333  0.50000000  0.00000000       0.002
   0.16666667  0.50000000  0.00000000       0.002
   0.25000000  0.50000000  0.00000000       0.002
   0.33333333  0.50000000  0.00000000       0.002
   0.41666667  0.50000000  0.00000000       0.002
   0.50000000  0.50000000  0.00000000       0.001
   0.00000000  0.08333333  0.08333333       0.002
   0.08333333  0.08333333  0.08333333       0.005
   0.16666667  0.08333333  0.08333333       0.005
   0.25000000  0.08333333  0.08333333       0.005
   0.33333333  0.08333333  0.08333333       0.005
   0.41666667  0.08333333  0.08333333       0.005
   0.50000000  0.08333333  0.08333333       0.002
   0.00000000  0.16666667  0.08333333       0.005
   0.08333333  0.16666667  0.08333333       0.009
   0.16666667  0.16666667  0.08333333       0.009
   0.25000000  0.16666667  0.08333333       0.009
   0.33333333  0.16666667  0.08333333       0.009
   0.41666667  0.16666667  0.08333333       0.009
   0.50000000  0.16666667  0.08333333       0.005
   0.00000000  0.25000000  0.08333333       0.005
   0.08333333  0.25000000  0.08333333       0.009
   0.16666667  0.25000000  0.08333333       0.009
   0.25000000  0.25000000  0.08333333       0.009
   0.33333333  0.25000000  0.08333333       0.009
   0.41666667  0.25000000  0.08333333       0.009
   0.50000000  0.25000000  0.08333333       0.005
   0.00000000  0.33333333  0.08333333       0.005
   0.08333333  0.33333333  0.08333333       0.009
   0.16666667  0.33333333  0.08333333       0.009
   0.25000000  0.33333333  0.08333333       0.009
   0.33333333  0.33333333  0.08333333       0.009
   0.41666667  0.33333333  0.08333333       0.009
   0.50000000  0.33333333  0.08333333       0.005
   0.00000000  0.41666667  0.08333333       0.005
   0.08333333  0.41666667  0.08333333       0.009
   0.16666667  0.41666667  0.08333333       0.009
   0.25000000  0.41666667  0.08333333       0.009
   0.33333333  0.41666667  0.08333333       0.009
   0.41666667  0.41666667  0.08333333       0.009
   0.50000000  0.41666667  0.08333333       0.005
   0.00000000  0.50000000  0.08333333       0.002
   0.08333333  0.50000000  0.08333333       0.005
   0.16666667  0.50000000  0.08333333       0.005
   0.25000000  0.50000000  0.08333333       0.005
   0.33333333  0.50000000  0.08333333       0.005
   0.41666667  0.50000000  0.08333333       0.005
   0.50000000  0.50000000  0.08333333       0.002
   0.00000000  0.16666667  0.16666667       0.002
   0.08333333  0.16666667  0.16666667       0.005
   0.16666667  0.16666667  0.16666667       0.005
   0.25000000  0.16666667  0.16666667       0.005
   0.33333333  0.16666667  0.16666667       0.005
   0.41666667  0.16666667  0.16666667       0.005
   0.50000000  0.16666667  0.16666667       0.002
   0.00000000  0.25000000  0.16666667       0.005
   0.08333333  0.25000000  0.16666667       0.009
   0.16666667  0.25000000  0.16666667       0.009
   0.25000000  0.25000000  0.16666667       0.009
   0.33333333  0.25000000  0.16666667       0.009
   0.41666667  0.25000000  0.16666667       0.009
   0.50000000  0.25000000  0.16666667       0.005
   0.00000000  0.33333333  0.16666667       0.005
   0.08333333  0.33333333  0.16666667       0.009
   0.16666667  0.33333333  0.16666667       0.009
   0.25000000  0.33333333  0.16666667       0.009
   0.33333333  0.33333333  0.16666667       0.009
   0.41666667  0.33333333  0.16666667       0.009
   0.50000000  0.33333333  0.16666667       0.005
   0.00000000  0.41666667  0.16666667       0.005
   0.08333333  0.41666667  0.16666667       0.009
   0.16666667  0.41666667  0.16666667       0.009
   0.25000000  0.41666667  0.16666667       0.009
   0.33333333  0.41666667  0.16666667       0.009
   0.41666667  0.41666667  0.16666667       0.009
   0.50000000  0.41666667  0.16666667       0.005
   0.00000000  0.50000000  0.16666667       0.002
   0.08333333  0.50000000  0.16666667       0.005
   0.16666667  0.50000000  0.16666667       0.005
   0.25000000  0.50000000  0.16666667       0.005
   0.33333333  0.50000000  0.16666667       0.005
   0.41666667  0.50000000  0.16666667       0.005
   0.50000000  0.50000000  0.16666667       0.002
   0.00000000  0.25000000  0.25000000       0.002
   0.08333333  0.25000000  0.25000000       0.005
   0.16666667  0.25000000  0.25000000       0.005
   0.25000000  0.25000000  0.25000000       0.005
   0.33333333  0.25000000  0.25000000       0.005
   0.41666667  0.25000000  0.25000000       0.005
   0.50000000  0.25000000  0.25000000       0.002
   0.00000000  0.33333333  0.25000000       0.005
   0.08333333  0.33333333  0.25000000       0.009
   0.16666667  0.33333333  0.25000000       0.009
   0.25000000  0.33333333  0.25000000       0.009
   0.33333333  0.33333333  0.25000000       0.009
   0.41666667  0.33333333  0.25000000       0.009
   0.50000000  0.33333333  0.25000000       0.005
   0.00000000  0.41666667  0.25000000       0.005
   0.08333333  0.41666667  0.25000000       0.009
   0.16666667  0.41666667  0.25000000       0.009
   0.25000000  0.41666667  0.25000000       0.009
   0.33333333  0.41666667  0.25000000       0.009
   0.41666667  0.41666667  0.25000000       0.009
   0.50000000  0.41666667  0.25000000       0.005
   0.00000000  0.50000000  0.25000000       0.002
   0.08333333  0.50000000  0.25000000       0.005
   0.16666667  0.50000000  0.25000000       0.005
   0.25000000  0.50000000  0.25000000       0.005
   0.33333333  0.50000000  0.25000000       0.005
   0.41666667  0.50000000  0.25000000       0.005
   0.50000000  0.50000000  0.25000000       0.002
   0.00000000  0.33333333  0.33333333       0.002
   0.08333333  0.33333333  0.33333333       0.005
   0.16666667  0.33333333  0.33333333       0.005
   0.25000000  0.33333333  0.33333333       0.005
   0.33333333  0.33333333  0.33333333       0.005
   0.41666667  0.33333333  0.33333333       0.005
   0.50000000  0.33333333  0.33333333       0.002
   0.00000000  0.41666667  0.33333333       0.005
   0.08333333  0.41666667  0.33333333       0.009
   0.16666667  0.41666667  0.33333333       0.009
   0.25000000  0.41666667  0.33333333       0.009
   0.33333333  0.41666667  0.33333333       0.009
   0.41666667  0.41666667  0.33333333       0.009
   0.50000000  0.41666667  0.33333333       0.005
   0.00000000  0.50000000  0.33333333       0.002
   0.08333333  0.50000000  0.33333333       0.005
   0.16666667  0.50000000  0.33333333       0.005
   0.25000000  0.50000000  0.33333333       0.005
   0.33333333  0.50000000  0.33333333       0.005
   0.41666667  0.50000000  0.33333333       0.005
   0.50000000  0.50000000  0.33333333       0.002
   0.00000000  0.41666667  0.41666667       0.002
   0.08333333  0.41666667  0.41666667       0.005
   0.16666667  0.41666667  0.41666667       0.005
   0.25000000  0.41666667  0.41666667       0.005
   0.33333333  0.41666667  0.41666667       0.005
   0.41666667  0.41666667  0.41666667       0.005
   0.50000000  0.41666667  0.41666667       0.002
   0.00000000  0.50000000  0.41666667       0.002
   0.08333333  0.50000000  0.41666667       0.005
   0.16666667  0.50000000  0.41666667       0.005
   0.25000000  0.50000000  0.41666667       0.005
   0.33333333  0.50000000  0.41666667       0.005
   0.41666667  0.50000000  0.41666667       0.005
   0.50000000  0.50000000  0.41666667       0.002
   0.00000000  0.50000000  0.50000000       0.001
   0.08333333  0.50000000  0.50000000       0.001
   0.16666667  0.50000000  0.50000000       0.001
   0.25000000  0.50000000  0.50000000       0.001
   0.33333333  0.50000000  0.50000000       0.001
   0.41666667  0.50000000  0.50000000       0.001
   0.50000000  0.50000000  0.50000000       0.001
 
 position of ions in fractional coordinates (direct lattice) 
   0.00120099  0.00000000  0.00000000
   0.50000000  0.00000000  0.00000000
   0.00000000  0.50000000  0.00000000
   0.50000000  0.50000000  0.00000000
   0.00000000  0.00000000  0.50000000
   0.50000000  0.00000000  0.50000000
   0.00000000  0.50000000  0.50000000
   0.50000000  0.50000000  0.50000000
   0.25000000  0.25000000  0.00000000
   0.75000000  0.25000000  0.00000000
   0.25000000  0.75000000  0.00000000
   0.75000000  0.75000000  0.00000000
   0.25000000  0.25000000  0.50000000
   0.75000000  0.25000000  0.50000000
   0.25000000  0.75000000  0.50000000
   0.75000000  0.75000000  0.50000000
   0.25000000  0.00000000  0.25000000
   0.75000000  0.00000000  0.25000000
   0.25000000  0.50000000  0.25000000
   0.75000000  0.50000000  0.25000000
   0.25000000  0.00000000  0.75000000
   0.75000000  0.00000000  0.75000000
   0.25000000  0.50000000  0.75000000
   0.75000000  0.50000000  0.75000000
   0.00000000  0.25000000  0.25000000
   0.50000000  0.25000000  0.25000000
   0.00000000  0.75000000  0.25000000
   0.50000000  0.75000000  0.25000000
   0.00000000  0.25000000  0.75000000
   0.50000000  0.25000000  0.75000000
   0.00000000  0.75000000  0.75000000
   0.50000000  0.75000000  0.75000000
 
 position of ions in cartesian coordinates  (Angst):
   0.01000000  0.00000000  0.00000000
   4.16322478  0.00000000  0.00000000
   0.00000000  4.16322478  0.00000000
   4.16322478  4.16322478  0.00000000
   0.00000000  0.00000000  4.16322478
   4.16322478  0.00000000  4.16322478
   0.00000000  4.16322478  4.16322478
   4.16322478  4.16322478  4.16322478
   2.08161239  2.08161239  0.00000000
   6.24483717  2.08161239  0.00000000
   2.08161239  6.24483717  0.00000000
   6.24483717  6.24483717  0.00000000
   2.08161239  2.08161239  4.16322478
   6.24483717  2.08161239  4.16322478
   2.08161239  6.24483717  4.16322478
   6.24483717  6.24483717  4.16322478
   2.08161239  0.00000000  2.08161239
   6.24483717  0.00000000  2.08161239
   2.08161239  4.16322478  2.08161239
   6.24483717  4.16322478  2.08161239
   2.08161239  0.00000000  6.24483717
   6.24483717  0.00000000  6.24483717
   2.08161239  4.16322478  6.24483717
   6.24483717  4.16322478  6.24483717
   0.00000000  2.08161239  2.08161239
   4.16322478  2.08161239  2.08161239
   0.00000000  6.24483717  2.08161239
   4.16322478  6.24483717  2.08161239
   0.00000000  2.08161239  6.24483717
   4.16322478  2.08161239  6.24483717
   0.00000000  6.24483717  6.24483717
   4.16322478  6.24483717  6.24483717
 


--------------------------------------------------------------------------------------------------------


 k-point  1 :  0.00000.00000.0000  plane waves:  26961
 k-point  2 :  0.08330.00000.0000  plane waves:  26973
 k-point  3 :  0.16670.00000.0000  plane waves:  26977
 k-point  4 :  0.25000.00000.0000  plane waves:  26953
 k-point  5 :  0.33330.00000.0000  plane waves:  26909
 k-point  6 :  0.41670.00000.0000  plane waves:  26914
 k-point  7 :  0.50000.00000.0000  plane waves:  26910
 k-point  8 :  0.00000.08330.0000  plane waves:  26973
 k-point  9 :  0.08330.08330.0000  plane waves:  27001
 k-point 10 :  0.16670.08330.0000  plane waves:  26955
 k-point 11 :  0.25000.08330.0000  plane waves:  26914
 k-point 12 :  0.33330.08330.0000  plane waves:  26921
 k-point 13 :  0.41670.08330.0000  plane waves:  26943
 k-point 14 :  0.50000.08330.0000  plane waves:  26936
 k-point 15 :  0.00000.16670.0000  plane waves:  26977
 k-point 16 :  0.08330.16670.0000  plane waves:  26955
 k-point 17 :  0.16670.16670.0000  plane waves:  26926
 k-point 18 :  0.25000.16670.0000  plane waves:  26942
 k-point 19 :  0.33330.16670.0000  plane waves:  26929
 k-point 20 :  0.41670.16670.0000  plane waves:  26910
 k-point 21 :  0.50000.16670.0000  plane waves:  26938
 k-point 22 :  0.00000.25000.0000  plane waves:  26953
 k-point 23 :  0.08330.25000.0000  plane waves:  26914
 k-point 24 :  0.16670.25000.0000  plane waves:  26942
 k-point 25 :  0.25000.25000.0000  plane waves:  26952
 k-point 26 :  0.33330.25000.0000  plane waves:  26918
 k-point 27 :  0.41670.25000.0000  plane waves:  26912
 k-point 28 :  0.50000.25000.0000  plane waves:  26928
 k-point 29 :  0.00000.33330.0000  plane waves:  26909
 k-point 30 :  0.08330.33330.0000  plane waves:  26921
 k-point 31 :  0.16670.33330.0000  plane waves:  26929
 k-point 32 :  0.25000.33330.0000  plane waves:  26918
 k-point 33 :  0.33330.33330.0000  plane waves:  26938
 k-point 34 :  0.41670.33330.0000  plane waves:  26924
 k-point 35 :  0.50000.33330.0000  plane waves:  26930
 k-point 36 :  0.00000.41670.0000  plane waves:  26914
 k-point 37 :  0.08330.41670.0000  plane waves:  26943
 k-point 38 :  0.16670.41670.0000  plane waves:  26910
 k-point 39 :  0.25000.41670.0000  plane waves:  26912
 k-point 40 :  0.33330.41670.0000  plane waves:  26924
 k-point 41 :  0.41670.41670.0000  plane waves:  26914
 k-point 42 :  0.50000.41670.0000  plane waves:  26902
 k-point 43 :  0.00000.50000.0000  plane waves:  26910
 k-point 44 :  0.08330.50000.0000  plane waves:  26936
 k-point 45 :  0.16670.50000.0000  plane waves:  26938
 k-point 46 :  0.25000.50000.0000  plane waves:  26928
 k-point 47 :  0.33330.50000.0000  plane waves:  26930
 k-point 48 :  0.41670.50000.0000  plane waves:  26902
 k-point 49 :  0.50000.50000.0000  plane waves:  26932
 k-point 50 :  0.00000.08330.0833  plane waves:  27001
 k-point 51 :  0.08330.08330.0833  plane waves:  26982
 k-point 52 :  0.16670.08330.0833  plane waves:  26928
 k-point 53 :  0.25000.08330.0833  plane waves:  26920
 k-point 54 :  0.33330.08330.0833  plane waves:  26933
 k-point 55 :  0.41670.08330.0833  plane waves:  26951
 k-point 56 :  0.50000.08330.0833  plane waves:  26918
 k-point 57 :  0.00000.16670.0833  plane waves:  26955
 k-point 58 :  0.08330.16670.0833  plane waves:  26928
 k-point 59 :  0.16670.16670.0833  plane waves:  26938
 k-point 60 :  0.25000.16670.0833  plane waves:  26933
 k-point 61 :  0.33330.16670.0833  plane waves:  26934
 k-point 62 :  0.41670.16670.0833  plane waves:  26928
 k-point 63 :  0.50000.16670.0833  plane waves:  26940
 k-point 64 :  0.00000.25000.0833  plane waves:  26914
 k-point 65 :  0.08330.25000.0833  plane waves:  26920
 k-point 66 :  0.16670.25000.0833  plane waves:  26933
 k-point 67 :  0.25000.25000.0833  plane waves:  26942
 k-point 68 :  0.33330.25000.0833  plane waves:  26925
 k-point 69 :  0.41670.25000.0833  plane waves:  26920
 k-point 70 :  0.50000.25000.0833  plane waves:  26940
 k-point 71 :  0.00000.33330.0833  plane waves:  26921
 k-point 72 :  0.08330.33330.0833  plane waves:  26933
 k-point 73 :  0.16670.33330.0833  plane waves:  26934
 k-point 74 :  0.25000.33330.0833  plane waves:  26925
 k-point 75 :  0.33330.33330.0833  plane waves:  26905
 k-point 76 :  0.41670.33330.0833  plane waves:  26902
 k-point 77 :  0.50000.33330.0833  plane waves:  26898
 k-point 78 :  0.00000.41670.0833  plane waves:  26943
 k-point 79 :  0.08330.41670.0833  plane waves:  26951
 k-point 80 :  0.16670.41670.0833  plane waves:  26928
 k-point 81 :  0.25000.41670.0833  plane waves:  26920
 k-point 82 :  0.33330.41670.0833  plane waves:  26902
 k-point 83 :  0.41670.41670.0833  plane waves:  26908
 k-point 84 :  0.50000.41670.0833  plane waves:  26906
 k-point 85 :  0.00000.50000.0833  plane waves:  26936
 k-point 86 :  0.08330.50000.0833  plane waves:  26918
 k-point 87 :  0.16670.50000.0833  plane waves:  26940
 k-point 88 :  0.25000.50000.0833  plane waves:  26940
 k-point 89 :  0.33330.50000.0833  plane waves:  26898
 k-point 90 :  0.41670.50000.0833  plane waves:  26906
 k-point 91 :  0.50000.50000.0833  plane waves:  26924
 k-point 92 :  0.00000.16670.1667  plane waves:  26926
 k-point 93 :  0.08330.16670.1667  plane waves:  26938
 k-point 94 :  0.16670.16670.1667  plane waves:  26922
 k-point 95 :  0.25000.16670.1667  plane waves:  26940
 k-point 96 :  0.33330.16670.1667  plane waves:  26934
 k-point 97 :  0.41670.16670.1667  plane waves:  26927
 k-point 98 :  0.50000.16670.1667  plane waves:  26958
 k-point 99 :  0.00000.25000.1667  plane waves:  26942
 k-point ** :  0.08330.25000.1667  plane waves:  26933
 k-point ** :  0.16670.25000.1667  plane waves:  26940
 k-point ** :  0.25000.25000.1667  plane waves:  26937
 k-point ** :  0.33330.25000.1667  plane waves:  26908
 k-point ** :  0.41670.25000.1667  plane waves:  26921
 k-point ** :  0.50000.25000.1667  plane waves:  26932
 k-point ** :  0.00000.33330.1667  plane waves:  26929
 k-point ** :  0.08330.33330.1667  plane waves:  26934
 k-point ** :  0.16670.33330.1667  plane waves:  26934
 k-point ** :  0.25000.33330.1667  plane waves:  26908
 k-point ** :  0.33330.33330.1667  plane waves:  26927
 k-point ** :  0.41670.33330.1667  plane waves:  26927
 k-point ** :  0.50000.33330.1667  plane waves:  26882
 k-point ** :  0.00000.41670.1667  plane waves:  26910
 k-point ** :  0.08330.41670.1667  plane waves:  26928
 k-point ** :  0.16670.41670.1667  plane waves:  26927
 k-point ** :  0.25000.41670.1667  plane waves:  26921
 k-point ** :  0.33330.41670.1667  plane waves:  26927
 k-point ** :  0.41670.41670.1667  plane waves:  26900
 k-point ** :  0.50000.41670.1667  plane waves:  26906
 k-point ** :  0.00000.50000.1667  plane waves:  26938
 k-point ** :  0.08330.50000.1667  plane waves:  26940
 k-point ** :  0.16670.50000.1667  plane waves:  26958
 k-point ** :  0.25000.50000.1667  plane waves:  26932
 k-point ** :  0.33330.50000.1667  plane waves:  26882
 k-point ** :  0.41670.50000.1667  plane waves:  26906
 k-point ** :  0.50000.50000.1667  plane waves:  26880
 k-point ** :  0.00000.25000.2500  plane waves:  26952
 k-point ** :  0.08330.25000.2500  plane waves:  26942
 k-point ** :  0.16670.25000.2500  plane waves:  26937
 k-point ** :  0.25000.25000.2500  plane waves:  26955
 k-point ** :  0.33330.25000.2500  plane waves:  26930
 k-point ** :  0.41670.25000.2500  plane waves:  26939
 k-point ** :  0.50000.25000.2500  plane waves:  26914
 k-point ** :  0.00000.33330.2500  plane waves:  26918
 k-point ** :  0.08330.33330.2500  plane waves:  26925
 k-point ** :  0.16670.33330.2500  plane waves:  26908
 k-point ** :  0.25000.33330.2500  plane waves:  26930
 k-point ** :  0.33330.33330.2500  plane waves:  26941
 k-point ** :  0.41670.33330.2500  plane waves:  26908
 k-point ** :  0.50000.33330.2500  plane waves:  26902
 k-point ** :  0.00000.41670.2500  plane waves:  26912
 k-point ** :  0.08330.41670.2500  plane waves:  26920
 k-point ** :  0.16670.41670.2500  plane waves:  26921
 k-point ** :  0.25000.41670.2500  plane waves:  26939
 k-point ** :  0.33330.41670.2500  plane waves:  26908
 k-point ** :  0.41670.41670.2500  plane waves:  26894
 k-point ** :  0.50000.41670.2500  plane waves:  26916
 k-point ** :  0.00000.50000.2500  plane waves:  26928
 k-point ** :  0.08330.50000.2500  plane waves:  26940
 k-point ** :  0.16670.50000.2500  plane waves:  26932
 k-point ** :  0.25000.50000.2500  plane waves:  26914
 k-point ** :  0.33330.50000.2500  plane waves:  26902
 k-point ** :  0.41670.50000.2500  plane waves:  26916
 k-point ** :  0.50000.50000.2500  plane waves:  26916
 k-point ** :  0.00000.33330.3333  plane waves:  26938
 k-point ** :  0.08330.33330.3333  plane waves:  26905
 k-point ** :  0.16670.33330.3333  plane waves:  26927
 k-point ** :  0.25000.33330.3333  plane waves:  26941
 k-point ** :  0.33330.33330.3333  plane waves:  26923
 k-point ** :  0.41670.33330.3333  plane waves:  26923
 k-point ** :  0.50000.33330.3333  plane waves:  26912
 k-point ** :  0.00000.41670.3333  plane waves:  26924
 k-point ** :  0.08330.41670.3333  plane waves:  26902
 k-point ** :  0.16670.41670.3333  plane waves:  26927
 k-point ** :  0.25000.41670.3333  plane waves:  26908
 k-point ** :  0.33330.41670.3333  plane waves:  26923
 k-point ** :  0.41670.41670.3333  plane waves:  26903
 k-point ** :  0.50000.41670.3333  plane waves:  26898
 k-point ** :  0.00000.50000.3333  plane waves:  26930
 k-point ** :  0.08330.50000.3333  plane waves:  26898
 k-point ** :  0.16670.50000.3333  plane waves:  26882
 k-point ** :  0.25000.50000.3333  plane waves:  26902
 k-point ** :  0.33330.50000.3333  plane waves:  26912
 k-point ** :  0.41670.50000.3333  plane waves:  26898
 k-point ** :  0.50000.50000.3333  plane waves:  26916
 k-point ** :  0.00000.41670.4167  plane waves:  26914
 k-point ** :  0.08330.41670.4167  plane waves:  26908
 k-point ** :  0.16670.41670.4167  plane waves:  26900
 k-point ** :  0.25000.41670.4167  plane waves:  26894
 k-point ** :  0.33330.41670.4167  plane waves:  26903
 k-point ** :  0.41670.41670.4167  plane waves:  26917
 k-point ** :  0.50000.41670.4167  plane waves:  26904
 k-point ** :  0.00000.50000.4167  plane waves:  26902
 k-point ** :  0.08330.50000.4167  plane waves:  26906
 k-point ** :  0.16670.50000.4167  plane waves:  26906
 k-point ** :  0.25000.50000.4167  plane waves:  26916
 k-point ** :  0.33330.50000.4167  plane waves:  26898
 k-point ** :  0.41670.50000.4167  plane waves:  26904
 k-point ** :  0.50000.50000.4167  plane waves:  26908
 k-point ** :  0.00000.50000.5000  plane waves:  26932
 k-point ** :  0.08330.50000.5000  plane waves:  26924
 k-point ** :  0.16670.50000.5000  plane waves:  26880
 k-point ** :  0.25000.50000.5000  plane waves:  26916
 k-point ** :  0.33330.50000.5000  plane waves:  26916
 k-point ** :  0.41670.50000.5000  plane waves:  26908
 k-point ** :  0.50000.50000.5000  plane waves:  27016

 maximum and minimum number of plane-waves per node :  27016 26880

 maximum number of plane-waves:  27016
 maximal index in each direction: 
   IXMAX= 18   IYMAX= 18   IZMAX= 18
   IXMIN=-19   IYMIN=-19   IZMIN=-19

 NGX is ok and might be reduce to  76
 NGY is ok and might be reduce to  76
 NGZ is ok and might be reduce to  76

 parallel 3dFFT wavefunction:
    minimum data exchange during FFTs selected (reduces bandwidth)
 parallel 3dFFT charge:
    minimum data exchange during FFTs selected (reduces bandwidth)

 For storing wavefunctions ******* MBYTES are necessary
 For predicting wavefunctions  196.64 MBYTES are necessary
Broyden mixing: mesh for mixing (old mesh)
   NGX = 37   NGY = 37   NGZ = 37
  (NGX  =160   NGY  =160   NGZ  =160)
 gives a total of  50653 points
 initial charge density was supplied:
 charge density of overlapping atoms calculated
 number of electron  352.0000000 magnetization 
 keeping initial charge density in first step


--------------------------------------------------------------------------------------------------------


 Maximum index for augmentation-charges        42507 (set IRDMAX)


--------------------------------------------------------------------------------------------------------


 First call to EWALD:  gamma=   0.213
 Maximum number of real-space cells 3x 3x 3
 Maximum number of reciprocal cells 3x 3x 3

    FEWALD:  VPU time    0.01: CPU time    0.01


----------------------------------------- Iteration    1(   1)  ---------------------------------------


    POTLOK:  VPU time    1.62: CPU time    1.63
    SETDIJ:  VPU time    3.56: CPU time    3.56
    EDDAV :  VPU time11300.90: CPU time11308.32
    DOS   :  VPU time   -0.00: CPU time   -0.00
    ------------------------------------------
      LOOP:  VPU time11306.32: CPU time11313.75

 eigenvalue-minimisations  : 84696
 total energy-change (2. order) : 0.4272218E+04  (-0.2127743E+05)
 number of electron  352.0000000 magnetization 
 augmentation part   352.0000000 magnetization 

 Free energy of the ion-electron system (eV)
  ---------------------------------------------------
  alpha Z        PSCENC =      3149.98753919
  Ewald energy   TEWEN  =    -30701.36009574
  -1/2 Hartree   DENC   =     -6761.35467741
  -V(xc)+E(xc)   XCENC  =      -347.15833702
  PAW double counting   =     27861.41421209   -26376.63839568
  entropy T*S    EENTRO =        -0.00065398
  eigenvalues    EBANDS =      4250.13106200
  atomic energy  EATOM  =     33197.19690173
  ---------------------------------------------------
  free energy    TOTEN  =      4272.21755518 eV

  energy without entropy =     4272.21820915  energy(sigma->0) =     4272.21788216


--------------------------------------------------------------------------------------------------------




----------------------------------------- Iteration    1(   2)  ---------------------------------------


    EDDAV :  VPU time11285.92: CPU time11292.49
    DOS   :  VPU time    0.00: CPU time   -0.00
    ------------------------------------------
      LOOP:  VPU time11286.15: CPU time11292.73

 eigenvalue-minimisations  : 84672
 total energy-change (2. order) :-0.4150555E+04  (-0.3958555E+04)
 number of electron  352.0000000 magnetization 
 augmentation part   352.0000000 magnetization 

 Free energy of the ion-electron system (eV)
  ---------------------------------------------------
  alpha Z        PSCENC =      3149.98753919
  Ewald energy   TEWEN  =    -30701.36009574
  -1/2 Hartree   DENC   =     -6761.35467741
  -V(xc)+E(xc)   XCENC  =      -347.15833702
  PAW double counting   =     27861.41421209   -26376.63839568
  entropy T*S    EENTRO =        -0.00044809
  eigenvalues    EBANDS =        99.57609589
  atomic energy  EATOM  =     33197.19690173
  ---------------------------------------------------
  free energy    TOTEN  =       121.66279495 eV

  energy without entropy =      121.66324305  energy(sigma->0) =      121.66301900


--------------------------------------------------------------------------------------------------------




----------------------------------------- Iteration    1(   3)  ---------------------------------------


    EDDAV :  VPU time11686.36: CPU time11728.48
    DOS   :  VPU time    0.00: CPU time   -0.00
    ------------------------------------------
      LOOP:  VPU time11686.60: CPU time11728.73

 eigenvalue-minimisations  : 88824
 total energy-change (2. order) :-0.2150861E+03  (-0.2054987E+03)
 number of electron  352.0000000 magnetization 
 augmentation part   352.0000000 magnetization 

 Free energy of the ion-electron system (eV)
  ---------------------------------------------------
  alpha Z        PSCENC =      3149.98753919
  Ewald energy   TEWEN  =    -30701.36009574
  -1/2 Hartree   DENC   =     -6761.35467741
  -V(xc)+E(xc)   XCENC  =      -347.15833702
  PAW double counting   =     27861.41421209   -26376.63839568
  entropy T*S    EENTRO =        -0.00066266
  eigenvalues    EBANDS =      -115.50980597
  atomic energy  EATOM  =     33197.19690173
  ---------------------------------------------------
  free energy    TOTEN  =       -93.42332147 eV

  energy without entropy =      -93.42265881  energy(sigma->0) =      -93.42299014


--------------------------------------------------------------------------------------------------------




----------------------------------------- Iteration    1(   4)  ---------------------------------------


    EDDAV :  VPU time11960.45: CPU time11967.31
    DOS   :  VPU time    0.00: CPU time   -0.00
    ------------------------------------------
      LOOP:  VPU time11960.69: CPU time11967.56

 eigenvalue-minimisations  : 91240
 total energy-change (2. order) :-0.4141804E+01  (-0.4115653E+01)
 number of electron  352.0000000 magnetization 
 augmentation part   352.0000000 magnetization 

 Free energy of the ion-electron system (eV)
  ---------------------------------------------------
  alpha Z        PSCENC =      3149.98753919
  Ewald energy   TEWEN  =    -30701.36009574
  -1/2 Hartree   DENC   =     -6761.35467741
  -V(xc)+E(xc)   XCENC  =      -347.15833702
  PAW double counting   =     27861.41421209   -26376.63839568
  entropy T*S    EENTRO =        -0.00070908
  eigenvalues    EBANDS =      -119.65156331
  atomic energy  EATOM  =     33197.19690173
  ---------------------------------------------------
  free energy    TOTEN  =       -97.56512523 eV

  energy without entropy =      -97.56441615  energy(sigma->0) =      -97.56477069


--------------------------------------------------------------------------------------------------------




----------------------------------------- Iteration    1(   5)  ---------------------------------------


    EDDAV :  VPU time11796.52: CPU time11839.55
    DOS   :  VPU time    0.00: CPU time   -0.00
    CHARGE:  VPU time  331.44: CPU time  332.61
    MIXING:  VPU time    0.04: CPU time    0.04
    ------------------------------------------
      LOOP:  VPU time12128.24: CPU time12172.44

 eigenvalue-minimisations  : 90040
 total energy-change (2. order) :-0.2197252E-01  (-0.2194927E-01)
 number of electron  352.0000011 magnetization 
 augmentation part   163.1995944 magnetization 

 Broyden mixing:
  rms(total) = 0.15789E+01    rms(broyden)= 0.15789E+01
  rms(prec ) = 0.23868E+01
  weight for this iteration     100.00

 Free energy of the ion-electron system (eV)
  ---------------------------------------------------
  alpha Z        PSCENC =      3149.98753919
  Ewald energy   TEWEN  =    -30701.36009574
  -1/2 Hartree   DENC   =     -6761.35467741
  -V(xc)+E(xc)   XCENC  =      -347.15833702
  PAW double counting   =     27861.41421209   -26376.63839568
  entropy T*S    EENTRO =        -0.00070906
  eigenvalues    EBANDS =      -119.67353585
  atomic energy  EATOM  =     33197.19690173
  ---------------------------------------------------
  free energy    TOTEN  =       -97.58709775 eV

  energy without entropy =      -97.58638869  energy(sigma->0) =      -97.58674322


--------------------------------------------------------------------------------------------------------




----------------------------------------- Iteration    1(   6)  ---------------------------------------


    POTLOK:  VPU time    1.99: CPU time    2.00
    SETDIJ:  VPU time    3.55: CPU time    3.56
    EDDAV :  VPU time11767.13: CPU time11780.73
    DOS   :  VPU time    0.00: CPU time   -0.00
    CHARGE:  VPU time  331.73: CPU time  332.11
    MIXING:  VPU time    0.06: CPU time    0.06
    ------------------------------------------
      LOOP:  VPU time12104.70: CPU time12118.70

 eigenvalue-minimisations  : 89424
 total energy-change (2. order) : 0.6853963E+01  (-0.2527447E+01)
 number of electron  352.0000012 magnetization 
 augmentation part   168.5705832 magnetization 

 Broyden mixing:
  rms(total) = 0.28474E+00    rms(broyden)= 0.28474E+00
  rms(prec ) = 0.39500E+00
  weight for this iteration     100.00

 eigenvalues of (default mixing * dielectric matrix)
  average eigenvalue GAMMA=   1.0601
  1.0601

 Free energy of the ion-electron system (eV)
  ---------------------------------------------------
  alpha Z        PSCENC =      3149.98753919
  Ewald energy   TEWEN  =    -30701.36009574
  -1/2 Hartree   DENC   =     -6463.81343427
  -V(xc)+E(xc)   XCENC  =      -357.91131277
  PAW double counting   =     27471.18652644   -26010.70444071
  entropy T*S    EENTRO =        -0.00064924
  eigenvalues    EBANDS =      -375.31416897
  atomic energy  EATOM  =     33197.19690173
  ---------------------------------------------------
  free energy    TOTEN  =       -90.73313433 eV

  energy without entropy =      -90.73248509  energy(sigma->0) =      -90.73280971


--------------------------------------------------------------------------------------------------------




----------------------------------------- Iteration    1(   7)  ---------------------------------------


    POTLOK:  VPU time    2.01: CPU time    2.02
    SETDIJ:  VPU time    3.53: CPU time    3.54
    EDDAV :  VPU time11625.48: CPU time11667.60
    DOS   :  VPU time    0.00: CPU time   -0.00
    CHARGE:  VPU time  331.27: CPU time  332.45
    MIXING:  VPU time    0.05: CPU time    0.05
    ------------------------------------------
      LOOP:  VPU time11962.56: CPU time12005.91

 eigenvalue-minimisations  : 88312
 total energy-change (2. order) : 0.1717268E+00  (-0.4613128E-01)
 number of electron  352.0000012 magnetization 
 augmentation part   168.8620203 magnetization 

 Broyden mixing:
  rms(total) = 0.15271E+00    rms(broyden)= 0.15271E+00
  rms(prec ) = 0.20028E+00
  weight for this iteration     100.00

 eigenvalues of (default mixing * dielectric matrix)
  average eigenvalue GAMMA=   1.7297
  1.0393  2.4201

 Free energy of the ion-electron system (eV)
  ---------------------------------------------------
  alpha Z        PSCENC =      3149.98753919
  Ewald energy   TEWEN  =    -30701.36009574
  -1/2 Hartree   DENC   =     -6423.29148856
  -V(xc)+E(xc)   XCENC  =      -359.47535468
  PAW double counting   =     27557.10221871   -26116.37942095
  entropy T*S    EENTRO =        -0.00062452
  eigenvalues    EBANDS =      -394.34108270
  atomic energy  EATOM  =     33197.19690173
[...]
     72      -1.4189      2.00000
     73      -1.3338      2.00000
     74      -1.3338      2.00000
     75      -1.3324      2.00000
     76      -1.3324      2.00000
     77      -1.3324      2.00000
     78      -1.3324      2.00000
     79      -1.3310      2.00000
     80      -1.3310      2.00000
     81      -1.1457      2.00000
     82      -1.1457      2.00000
     83      -1.1445      2.00000
     84      -1.1442      2.00000
     85      -1.1431      2.00000
     86      -1.1428      2.00000
     87      -1.1428      2.00000
     88      -1.1428      2.00000
     89      -1.1428      2.00000
     90      -1.1428      2.00000
     91      -1.1427      2.00000
     92      -1.1427      2.00000
     93      -1.1427      2.00000
     94      -1.1427      2.00000
     95      -1.1426      2.00000
     96      -1.1425      2.00000
     97      -1.1425      2.00000
     98      -1.1425      2.00000
     99      -1.1425      2.00000
    100      -1.1423      2.00000
    101      -1.1411      2.00000
    102      -1.1408      2.00000
    103      -1.1397      2.00000
    104      -1.1397      2.00000
    105      -0.8435      2.00000
    106      -0.8424      2.00000
    107      -0.8424      2.00000
    108      -0.8407      2.00000
    109      -0.8406      2.00000
    110      -0.8405      2.00000
    111      -0.8405      2.00000
    112      -0.8403      2.00000
    113      -0.8402      2.00000
    114      -0.8402      2.00000
    115      -0.8402      2.00000
    116      -0.8401      2.00000
    117      -0.8401      2.00000
    118      -0.8401      2.00000
    119      -0.8401      2.00000
    120      -0.8400      2.00000
    121      -0.8399      2.00000
    122      -0.8397      2.00000
    123      -0.8397      2.00000
    124      -0.8397      2.00000
    125      -0.8395      2.00000
    126      -0.8378      2.00000
    127      -0.8378      2.00000
    128      -0.8368      2.00000
    129      -0.5522      2.00000
    130      -0.5511      2.00000
    131      -0.5510      2.00000
    132      -0.5510      2.00000
    133      -0.5502      2.00000
    134      -0.5502      2.00000
    135      -0.5501      2.00000
    136      -0.5500      2.00000
    137      -0.5499      2.00000
    138      -0.5498      2.00000
    139      -0.5497      2.00000
    140      -0.5497      2.00000
    141      -0.5488      2.00000
    142      -0.5488      2.00000
    143      -0.5488      2.00000
    144      -0.5476      2.00000
    145       0.1039      2.00000
    146       0.1039      2.00000
    147       0.1041      2.00000
    148       0.1043      2.00000
    149       0.1043      2.00000
    150       0.1043      2.00000
    151       0.1043      2.00000
    152       0.1043      2.00000
    153       0.1044      2.00000
    154       0.1045      2.00000
    155       0.1045      2.00000
    156       0.1045      2.00000
    157       0.1046      2.00000
    158       0.1047      2.00000
    159       0.1047      2.00000
    160       0.1048      2.00000
    161       0.1048      2.00000
    162       0.1049      2.00000
    163       0.1049      2.00000
    164       0.1049      2.00000
    165       0.1049      2.00000
    166       0.1051      2.00000
    167       0.1053      2.00000
    168       0.1053      2.00000
    169       3.9740      0.00000
    170       3.9760      0.00000
    171       3.9760      0.00000
    172       3.9784      0.00000
    173       3.9787      0.00000
    174       3.9788      0.00000
    175       3.9788      0.00000
    176       3.9789      0.00000
    177       3.9789      0.00000
    178       3.9789      0.00000
    179       3.9789      0.00000
    180       3.9790      0.00000
    181       3.9792      0.00000
    182       3.9792      0.00000
    183       3.9792      0.00000
    184       3.9792      0.00000
    185       3.9792      0.00000
    186       3.9794      0.00000
    187       3.9794      0.00000
    188       3.9795      0.00000
    189       3.9798      0.00000
    190       3.9821      0.00000
    191       3.9821      0.00000
    192       3.9842      0.00000
    193       8.9079      0.00000
    194       8.9079      0.00000
    195       8.9096      0.00000
    196       8.9117      0.00000
    197       8.9119      0.00000
    198       8.9124      0.00000
    199       8.9124      0.00000
    200       8.9127      0.00000
    201       8.9128      0.00000
    202       8.9128      0.00000
    203       8.9128      0.00000
    204       8.9128      0.00000
    205       8.9129      0.00000
    206       8.9130      0.00000
    207       8.9130      0.00000
    208       8.9130      0.00000
    209       8.9131      0.00000
    210       8.9134      0.00000
    211       8.9134      0.00000
    212       8.9139      0.00000
    213       8.9141      0.00000
    214       8.9162      0.00000
    215       8.9179      0.00000
    216       8.9179      0.00000


--------------------------------------------------------------------------------------------------------


 soft charge-density along one line, spin component           1
         0         1         2         3         4         5         6         7         8         9
 total charge-density along one line
 
 pseudopotential strength for first ion, spin component:           1
-12.179  -0.000   0.000  -0.000  -0.000   0.132   0.000  -0.000
 -0.000 -12.179   0.000  -0.000   0.000   0.000   0.132  -0.000
  0.000   0.000 -12.169   0.000  -0.000  -0.000  -0.000   0.131
 -0.000  -0.000   0.000 -12.179  -0.000   0.000   0.000  -0.000
 -0.000   0.000  -0.000  -0.000 -12.169   0.000  -0.000   0.000
  0.132   0.000  -0.000   0.000   0.000   0.457  -0.000   0.000
  0.000   0.132  -0.000   0.000  -0.000  -0.000   0.457   0.000
 -0.000  -0.000   0.131  -0.000   0.000   0.000   0.000   0.457
  0.000   0.000  -0.000   0.132   0.000  -0.000  -0.000   0.000
  0.000  -0.000   0.000   0.000   0.131  -0.000   0.000  -0.000
  0.000   0.000   0.000   0.000  -0.000  -0.000  -0.000  -0.000
 -0.000  -0.000  -0.000  -0.000   0.000   0.000   0.000   0.000
 -0.000  -0.000   0.000  -0.000  -0.000   0.000   0.000  -0.000
 -0.000  -0.000   0.000  -0.000  -0.000   0.000   0.000   0.000
 -0.000  -0.000   0.000  -0.000  -0.000   0.000   0.000  -0.000
  0.000   0.000  -0.000   0.000   0.000  -0.000  -0.000   0.000
  0.000  -0.000  -0.000   0.000   0.000  -0.000  -0.000   0.000
  0.000   0.000  -0.000   0.000   0.000  -0.000  -0.000   0.000
 total augmentation occupancy for first ion, spin component:           1
  1.938   0.000  -0.001  -0.000  -0.000  -0.022  -0.000  -0.000   0.000   0.000   0.004  -0.001   0.000   0.000  -0.000  -0.000
  0.000   1.940  -0.001  -0.001  -0.001  -0.000  -0.025   0.002   0.000   0.000   0.003  -0.001   0.000   0.000  -0.000  -0.000
 -0.001  -0.001   1.966  -0.000  -0.002  -0.000   0.002  -0.054   0.001   0.002   0.013   0.001  -0.000  -0.000  -0.000  -0.000
 -0.000  -0.001  -0.000   1.943  -0.000   0.000   0.000   0.001  -0.028   0.001   0.003  -0.001   0.000   0.000  -0.000  -0.000
 -0.000  -0.001  -0.002  -0.000   1.958   0.000   0.000   0.002   0.001  -0.048   0.007   0.001   0.000   0.000   0.000  -0.000
 -0.022  -0.000  -0.000   0.000   0.000   0.075   0.000   0.001  -0.000  -0.000  -0.001   0.001   0.001  -0.000  -0.000  -0.000
 -0.000  -0.025   0.002   0.000   0.000   0.000   0.077  -0.002  -0.000   0.001  -0.000   0.001   0.000  -0.000   0.000   0.000
 -0.000   0.002  -0.054   0.001   0.002   0.001  -0.002   0.066  -0.001  -0.001  -0.010   0.000   0.000   0.000  -0.000   0.000
  0.000   0.000   0.001  -0.028   0.001  -0.000  -0.000  -0.001   0.080  -0.002   0.000   0.001  -0.000   0.001   0.000   0.000
  0.000   0.000   0.002   0.001  -0.048  -0.000   0.001  -0.001  -0.002   0.063  -0.006   0.000  -0.000  -0.000   0.000   0.000
  0.004   0.003   0.013   0.003   0.007  -0.001  -0.000  -0.010   0.000  -0.006   1.031  -0.346   0.000  -0.000   0.002   0.000
 -0.001  -0.001   0.001  -0.001   0.001   0.001   0.001   0.000   0.001   0.000  -0.346   0.177   0.000  -0.000  -0.001  -0.000
  0.000   0.000  -0.000   0.000   0.000   0.001   0.000   0.000  -0.000  -0.000   0.000   0.000   0.105   0.000   0.002  -0.006
  0.000   0.000  -0.000   0.000   0.000  -0.000  -0.000   0.000   0.001  -0.000  -0.000  -0.000   0.000   0.111  -0.001  -0.000
 -0.000  -0.000  -0.000  -0.000   0.000  -0.000   0.000  -0.000   0.000   0.000   0.002  -0.001   0.002  -0.001   0.108  -0.000
 -0.000  -0.000  -0.000  -0.000  -0.000  -0.000   0.000   0.000   0.000   0.000   0.000  -0.000  -0.006  -0.000  -0.000   0.000
 -0.000  -0.000   0.000  -0.000   0.000   0.000   0.000  -0.000  -0.000   0.000   0.000   0.000  -0.000  -0.006  -0.000   0.000
  0.000  -0.000   0.000   0.000  -0.000  -0.000  -0.000   0.000  -0.000  -0.000  -0.000   0.000  -0.000  -0.000  -0.006   0.000


------------------------ aborting loop because EDIFF is reached ----------------------------------------




--------------------------------------------------------------------------------------------------------


    CHARGE:  VPU time  333.05: CPU time  334.20
    FORLOC:  VPU time    0.25: CPU time    0.25
    FORNL :  VPU time  864.02: CPU time  866.11
    STRESS:  VPU time15237.06: CPU time15290.40
    FORCOR:  VPU time    1.72: CPU time    1.72
    FORHAR:  VPU time    0.64: CPU time    0.64
    MIXING:  VPU time    0.04: CPU time    0.05


--------------------------------------------------------------------------------------------------------



  FREE ENERGIE OF THE ION-ELECTRON SYSTEM (eV)
  ---------------------------------------------------
  free  energy   TOTEN  =       -90.478823 eV

  energy  without entropy=      -90.478192  energy(sigma->0) =      -90.478507
 

  FORCE on cell =-STRESS in cart. coord.  units (eV/reduce length):
  Direction    X        Y        Z        XY       YZ       ZX
  --------------------------------------------------------------------------------------
  Alpha Z   3149.99   3149.99   3149.99
  Ewald   -10233.85 -10233.82 -10233.82      0.00      0.00      0.00
  Hartree   2128.44   2128.47   2128.47     -0.00     -0.00     -0.00
  E(xc)    -1859.65  -1859.65  -1859.65     -0.00     -0.00     -0.00
  Local     3230.71   3230.65   3230.65      0.00     -0.00     -0.00
  n-local  -2109.75  -2113.61  -2105.89      1.67      1.06      0.45
  augment   1341.04   1341.04   1341.04     -0.00     -0.00     -0.00
  Kinetic   4353.17   4346.71   4359.63      0.62     -0.65     -1.92
  -------------------------------------------------------------------------------------
  Total        0.09      0.09      0.09      0.00      0.00      0.00
  in kB        0.25      0.24      0.24      0.00      0.00      0.00
  external pressure =        0.24 kB  Pullay stress =        0.00 kB


 VOLUME and BASIS-vectors are now :
 -----------------------------------------------------------------------------
  energy-cutoff  :      750.00
  volume of cell :      577.27
      direct lattice vectors                 reciprocal lattice vectors
     8.326449563  0.000000000  0.000000000     0.120099208  0.000000000  0.000000000
     0.000000000  8.326449563  0.000000000     0.000000000  0.120099208  0.000000000
     0.000000000  0.000000000  8.326449563     0.000000000  0.000000000  0.120099208

  length of vectors
     8.326449563  8.326449563  8.326449563     0.120099208  0.120099208  0.120099208


 FORCES acting on ions
    electron-ion (+dipol)            ewald-force                    non-local-force                 convergence-correction
 -----------------------------------------------------------------------------------------------
   0.390E+01 0.138E-13 0.585E-07   -.392E+01 0.231E-13 -.631E-13   -.276E-01 -.271E-19 0.000E+00   -.134E-04 0.126E-12 -.142E-12
   -.102E+01 0.175E-12 -.596E-07   0.103E+01 0.862E-13 -.853E-13   -.828E-02 0.000E+00 0.678E-20   0.185E-04 0.111E-12 -.231E-12
   0.326E+00 0.401E-14 -.188E-11   -.328E+00 0.417E-13 -.488E-13   0.158E-02 0.339E-20 0.339E-20   -.454E-05 -.289E-12 -.617E-13
   -.261E+00 0.115E-11 -.181E-11   0.257E+00 0.702E-13 0.000E+00   0.335E-02 0.000E+00 0.000E+00   -.170E-05 -.267E-12 -.927E-13
   0.326E+00 0.414E-13 0.646E-10   -.328E+00 0.132E-12 -.187E-13   0.158E-02 -.339E-20 0.233E-20   -.411E-05 0.937E-13 0.179E-13
   -.261E+00 -.658E-14 0.659E-10   0.257E+00 0.100E-12 -.426E-13   0.335E-02 -.678E-20 0.000E+00   -.178E-05 0.779E-13 0.942E-13
   0.136E+00 -.219E-13 -.101E-09   -.135E+00 0.666E-13 -.444E-14   -.117E-02 0.339E-20 0.000E+00   0.378E-05 -.259E-12 -.604E-13
   -.126E+00 -.634E-11 -.997E-10   0.126E+00 0.986E-13 -.284E-13   -.330E-03 0.000E+00 -.847E-21   -.722E-06 -.236E-12 -.548E-13
   -.496E+00 -.952E+00 -.651E-11   0.497E+00 0.955E+00 0.799E-14   0.468E-02 0.308E-02 -.678E-20   0.151E-05 0.850E-05 -.186E-12
   -.499E+00 0.944E+00 -.148E-10   0.500E+00 -.948E+00 -.204E-13   0.471E-02 -.309E-02 0.000E+00   0.320E-05 -.772E-05 -.119E-12
   -.496E+00 0.952E+00 -.668E-11   0.497E+00 -.955E+00 0.000E+00   0.468E-02 -.308E-02 0.000E+00   0.151E-05 -.850E-05 -.129E-12
   -.499E+00 -.944E+00 0.811E-12   0.500E+00 0.948E+00 -.568E-13   0.471E-02 0.309E-02 0.000E+00   0.320E-05 0.772E-05 -.838E-13
   -.137E-01 -.786E-01 0.457E-10   0.151E-01 0.785E-01 -.444E-14   -.124E-02 0.148E-03 -.768E-21   -.100E-07 0.237E-05 0.681E-13
   -.152E-01 0.785E-01 0.465E-10   0.167E-01 -.784E-01 0.977E-14   -.122E-02 -.171E-03 0.847E-21   0.201E-05 -.119E-05 -.101E-13
   -.137E-01 0.786E-01 0.459E-10   0.151E-01 -.785E-01 0.142E-13   -.124E-02 -.148E-03 -.847E-21   -.100E-07 -.237E-05 -.408E-14
   -.152E-01 -.785E-01 0.309E-10   0.167E-01 0.784E-01 -.711E-13   -.122E-02 0.171E-03 0.847E-21   0.201E-05 0.119E-05 -.616E-13
   -.496E+00 -.201E-13 -.952E+00   0.497E+00 0.497E-13 0.955E+00   0.468E-02 -.169E-20 0.308E-02   0.143E-05 0.747E-13 0.857E-05
   -.499E+00 0.234E-13 0.944E+00   0.500E+00 -.711E-14 -.948E+00   0.471E-02 -.678E-20 -.309E-02   0.312E-05 0.810E-13 -.779E-05
   -.137E-01 0.908E-12 -.786E-01   0.151E-01 0.213E-13 0.785E-01   -.124E-02 0.371E-21 0.148E-03   0.119E-07 -.226E-12 0.244E-05
   -.152E-01 0.933E-11 0.785E-01   0.167E-01 0.213E-13 -.784E-01   -.122E-02 -.169E-20 -.171E-03   0.203E-05 -.241E-12 -.126E-05
   -.496E+00 0.529E-13 0.952E+00   0.497E+00 0.142E-13 -.955E+00   0.468E-02 0.339E-20 -.308E-02   0.143E-05 0.143E-12 -.857E-05
   -.499E+00 0.456E-13 -.944E+00   0.500E+00 0.142E-13 0.948E+00   0.471E-02 0.000E+00 0.309E-02   0.312E-05 0.124E-12 0.779E-05
   -.137E-01 0.119E-11 0.786E-01   0.151E-01 -.568E-13 -.785E-01   -.124E-02 0.000E+00 -.148E-03   0.119E-07 -.291E-12 -.244E-05
   -.152E-01 -.671E-11 -.785E-01   0.167E-01 0.284E-13 0.784E-01   -.122E-02 -.212E-21 0.171E-03   0.203E-05 -.283E-12 0.126E-05
   0.615E+00 0.234E-02 0.234E-02   -.618E+00 -.233E-02 -.233E-02   0.162E-02 -.159E-04 -.159E-04   -.911E-05 0.562E-06 0.561E-06
   -.345E+00 -.679E-03 -.679E-03   0.347E+00 0.699E-03 0.699E-03   -.168E-02 -.183E-04 -.183E-04   0.348E-05 0.418E-06 0.418E-06
   0.615E+00 -.234E-02 0.234E-02   -.618E+00 0.233E-02 -.233E-02   0.162E-02 0.159E-04 -.159E-04   -.911E-05 -.562E-06 0.561E-06
   -.345E+00 0.679E-03 -.679E-03   0.347E+00 -.699E-03 0.699E-03   -.168E-02 0.183E-04 -.183E-04   0.348E-05 -.418E-06 0.418E-06
   0.615E+00 0.234E-02 -.234E-02   -.618E+00 -.233E-02 0.233E-02   0.162E-02 -.159E-04 0.159E-04   -.911E-05 0.562E-06 -.561E-06
   -.345E+00 -.679E-03 0.679E-03   0.347E+00 0.699E-03 -.699E-03   -.168E-02 -.183E-04 0.183E-04   0.348E-05 0.418E-06 -.418E-06
   0.615E+00 -.234E-02 -.234E-02   -.618E+00 0.233E-02 0.233E-02   0.162E-02 0.159E-04 0.159E-04   -.911E-05 -.562E-06 -.561E-06
   -.345E+00 0.679E-03 0.679E-03   0.347E+00 -.699E-03 -.699E-03   -.168E-02 0.183E-04 0.183E-04   0.348E-05 -.418E-06 -.418E-06
 -----------------------------------------------------------------------------------------------
   -.137E-06 0.201E-11 -.120E-09   -.114E-13 0.105E-12 0.296E-12   -.642E-05 -.169E-19 -.396E-18   0.775E-08 -.642E-12 -.240E-12
 
 
 POSITION                                       TOTAL-FORCE (eV/Angst)
 -----------------------------------------------------------------------------------
      0.01000      0.00000      0.00000        -0.044908      0.000000     -0.000000
      4.16322      0.00000      0.00000         0.001150     -0.000000      0.000000
      0.00000      4.16322      0.00000        -0.000329      0.000000     -0.000000
      4.16322      4.16322      0.00000        -0.000431     -0.000000     -0.000000
      0.00000      0.00000      4.16322        -0.000329      0.000000      0.000000
      4.16322      0.00000      4.16322        -0.000431     -0.000000      0.000000
      0.00000      4.16322      4.16322        -0.000075      0.000000     -0.000000
      4.16322      4.16322      4.16322        -0.000165     -0.000000      0.000000
      2.08161      2.08161      0.00000         0.005801      0.006823     -0.000000
      6.24484      2.08161      0.00000         0.005618     -0.006567      0.000000
      2.08161      6.24484      0.00000         0.005801     -0.006823     -0.000000
      6.24484      6.24484      0.00000         0.005618      0.006567     -0.000000
      2.08161      2.08161      4.16322         0.000225      0.000081     -0.000000
      6.24484      2.08161      4.16322         0.000225     -0.000076     -0.000000
      2.08161      6.24484      4.16322         0.000225     -0.000081     -0.000000
      6.24484      6.24484      4.16322         0.000225      0.000076     -0.000000
      2.08161      0.00000      2.08161         0.005801      0.000000      0.006823
      6.24484      0.00000      2.08161         0.005618      0.000000     -0.006567
      2.08161      4.16322      2.08161         0.000225      0.000000      0.000081
      6.24484      4.16322      2.08161         0.000225      0.000000     -0.000076
      2.08161      0.00000      6.24484         0.005801      0.000000     -0.006823
      6.24484      0.00000      6.24484         0.005618      0.000000      0.006567
      2.08161      4.16322      6.24484         0.000225      0.000000     -0.000081
      6.24484      4.16322      6.24484         0.000225      0.000000      0.000076
      0.00000      2.08161      2.08161        -0.001064     -0.000009     -0.000009
      4.16322      2.08161      2.08161         0.000575      0.000003      0.000003
      0.00000      6.24484      2.08161        -0.001064      0.000009     -0.000009
      4.16322      6.24484      2.08161         0.000575     -0.000003      0.000003
      0.00000      2.08161      6.24484        -0.001064     -0.000009      0.000009
      4.16322      2.08161      6.24484         0.000575      0.000003     -0.000003
      0.00000      6.24484      6.24484        -0.001064      0.000009      0.000009
      4.16322      6.24484      6.24484         0.000575     -0.000003     -0.000003
 -----------------------------------------------------------------------------------
    total drift:                               -0.000007      0.000000     -0.000000


--------------------------------------------------------------------------------------------------------



 mean value of Nose-termostat <S>:     1.000 mean value of <T> :     0.000
 mean temperature <T/S>/<1/S>  :     0.000

     LOOP+:  VPU time********: CPU time********
  
  
 General timing and accounting informations for this job:
 ========================================================
  
                  Total CPU time used (sec):   187427.763
                            User time (sec):   185501.659
                          System time (sec):     1926.103
                         Elapsed time (sec):   187865.491
  
                   Maximum memory used (kb):     8107644.
                   Average memory used (kb):           0.
  
                          Minor page faults:      1089404
                          Major page faults:            5
                 Voluntary context switches:         1092
