<?xml version="1.0" encoding="ISO-8859-1"?>
<modeling>
 <generator>
  <i name="program" type="string">vasp</i>
  <i name="version" type="string">4.6.28 </i>
  <i name="subversion" type="string">25Jul05 complex  parallel</i>
  <i name="platform" type="string">LinuxIFC</i>
  <i name="date" type="string">2017 01 11</i>
  <i name="time" type="string">09:11:08</i>
 </generator>
 <incar>
  <i type="string" name="PREC">accurate</i>
  <i type="int" name="IALGO">    38</i>
  <i type="logical" name="ADDGRID"> T  </i>
  <i name="EDIFF">      0.00000001</i>
  <i type="int" name="IBRION">    -1</i>
  <i name="ENCUT">    750.00000000</i>
  <i type="logical" name="LREAL"> F  </i>
  <i type="int" name="ISMEAR">     0</i>
  <i name="SIGMA">      0.01000000</i>
  <i type="logical" name="LWAVE"> F  </i>
  <i type="logical" name="LCHARG"> F  </i>
 </incar>
 <kpoints>
  <generation param="Gamma">
   <v type="int" name="divisions">      12      12      12</v>
   <v name="usershift">      0.00000000      0.00000000      0.00000000</v>
   <v name="genvec1">      0.08333333      0.00000000      0.00000000</v>
   <v name="genvec2">      0.00000000      0.08333333      0.00000000</v>
   <v name="genvec3">      0.00000000      0.00000000      0.08333333</v>
   <v name="shift">      0.00000000      0.00000000      0.00000000</v>
  </generation>
  <varray name="kpointlist" >
   <v>       0.00000000      0.00000000      0.00000000</v>
   <v>       0.08333333      0.00000000      0.00000000</v>
   <v>       0.16666667      0.00000000      0.00000000</v>
   <v>       0.25000000      0.00000000      0.00000000</v>
   <v>       0.33333333      0.00000000      0.00000000</v>
   <v>       0.41666667      0.00000000      0.00000000</v>
   <v>       0.50000000      0.00000000      0.00000000</v>
   <v>       0.00000000      0.08333333      0.00000000</v>
   <v>       0.08333333      0.08333333      0.00000000</v>
   <v>       0.16666667      0.08333333      0.00000000</v>
   <v>       0.25000000      0.08333333      0.00000000</v>
   <v>       0.33333333      0.08333333      0.00000000</v>
   <v>       0.41666667      0.08333333      0.00000000</v>
   <v>       0.50000000      0.08333333      0.00000000</v>
   <v>       0.00000000      0.16666667      0.00000000</v>
   <v>       0.08333333      0.16666667      0.00000000</v>
   <v>       0.16666667      0.16666667      0.00000000</v>
   <v>       0.25000000      0.16666667      0.00000000</v>
   <v>       0.33333333      0.16666667      0.00000000</v>
   <v>       0.41666667      0.16666667      0.00000000</v>
   <v>       0.50000000      0.16666667      0.00000000</v>
   <v>       0.00000000      0.25000000      0.00000000</v>
   <v>       0.08333333      0.25000000      0.00000000</v>
   <v>       0.16666667      0.25000000      0.00000000</v>
   <v>       0.25000000      0.25000000      0.00000000</v>
   <v>       0.33333333      0.25000000      0.00000000</v>
   <v>       0.41666667      0.25000000      0.00000000</v>
   <v>       0.50000000      0.25000000      0.00000000</v>
   <v>       0.00000000      0.33333333      0.00000000</v>
   <v>       0.08333333      0.33333333      0.00000000</v>
   <v>       0.16666667      0.33333333      0.00000000</v>
   <v>       0.25000000      0.33333333      0.00000000</v>
   <v>       0.33333333      0.33333333      0.00000000</v>
   <v>       0.41666667      0.33333333      0.00000000</v>
   <v>       0.50000000      0.33333333      0.00000000</v>
   <v>       0.00000000      0.41666667      0.00000000</v>
   <v>       0.08333333      0.41666667      0.00000000</v>
   <v>       0.16666667      0.41666667      0.00000000</v>
   <v>       0.25000000      0.41666667      0.00000000</v>
   <v>       0.33333333      0.41666667      0.00000000</v>
   <v>       0.41666667      0.41666667      0.00000000</v>
   <v>       0.50000000      0.41666667      0.00000000</v>
   <v>       0.00000000      0.50000000      0.00000000</v>
   <v>       0.08333333      0.50000000      0.00000000</v>
   <v>       0.16666667      0.50000000      0.00000000</v>
   <v>       0.25000000      0.50000000      0.00000000</v>
   <v>       0.33333333      0.50000000      0.00000000</v>
   <v>       0.41666667      0.50000000      0.00000000</v>
   <v>       0.50000000      0.50000000      0.00000000</v>
   <v>       0.00000000      0.08333333      0.08333333</v>
   <v>       0.08333333      0.08333333      0.08333333</v>
   <v>       0.16666667      0.08333333      0.08333333</v>
   <v>       0.25000000      0.08333333      0.08333333</v>
   <v>       0.33333333      0.08333333      0.08333333</v>
   <v>       0.41666667      0.08333333      0.08333333</v>
   <v>       0.50000000      0.08333333      0.08333333</v>
   <v>       0.00000000      0.16666667      0.08333333</v>
   <v>       0.08333333      0.16666667      0.08333333</v>
   <v>       0.16666667      0.16666667      0.08333333</v>
   <v>       0.25000000      0.16666667      0.08333333</v>
   <v>       0.33333333      0.16666667      0.08333333</v>
   <v>       0.41666667      0.16666667      0.08333333</v>
   <v>       0.50000000      0.16666667      0.08333333</v>
   <v>       0.00000000      0.25000000      0.08333333</v>
   <v>       0.08333333      0.25000000      0.08333333</v>
   <v>       0.16666667      0.25000000      0.08333333</v>
   <v>       0.25000000      0.25000000      0.08333333</v>
   <v>       0.33333333      0.25000000      0.08333333</v>
   <v>       0.41666667      0.25000000      0.08333333</v>
   <v>       0.50000000      0.25000000      0.08333333</v>
   <v>       0.00000000      0.33333333      0.08333333</v>
   <v>       0.08333333      0.33333333      0.08333333</v>
   <v>       0.16666667      0.33333333      0.08333333</v>
   <v>       0.25000000      0.33333333      0.08333333</v>
   <v>       0.33333333      0.33333333      0.08333333</v>
   <v>       0.41666667      0.33333333      0.08333333</v>
   <v>       0.50000000      0.33333333      0.08333333</v>
   <v>       0.00000000      0.41666667      0.08333333</v>
   <v>       0.08333333      0.41666667      0.08333333</v>
   <v>       0.16666667      0.41666667      0.08333333</v>
   <v>       0.25000000      0.41666667      0.08333333</v>
   <v>       0.33333333      0.41666667      0.08333333</v>
   <v>       0.41666667      0.41666667      0.08333333</v>
   <v>       0.50000000      0.41666667      0.08333333</v>
   <v>       0.00000000      0.50000000      0.08333333</v>
   <v>       0.08333333      0.50000000      0.08333333</v>
   <v>       0.16666667      0.50000000      0.08333333</v>
   <v>       0.25000000      0.50000000      0.08333333</v>
   <v>       0.33333333      0.50000000      0.08333333</v>
   <v>       0.41666667      0.50000000      0.08333333</v>
   <v>       0.50000000      0.50000000      0.08333333</v>
   <v>       0.00000000      0.16666667      0.16666667</v>
   <v>       0.08333333      0.16666667      0.16666667</v>
   <v>       0.16666667      0.16666667      0.16666667</v>
   <v>       0.25000000      0.16666667      0.16666667</v>
   <v>       0.33333333      0.16666667      0.16666667</v>
   <v>       0.41666667      0.16666667      0.16666667</v>
   <v>       0.50000000      0.16666667      0.16666667</v>
   <v>       0.00000000      0.25000000      0.16666667</v>
   <v>       0.08333333      0.25000000      0.16666667</v>
   <v>       0.16666667      0.25000000      0.16666667</v>
   <v>       0.25000000      0.25000000      0.16666667</v>
   <v>       0.33333333      0.25000000      0.16666667</v>
   <v>       0.41666667      0.25000000      0.16666667</v>
   <v>       0.50000000      0.25000000      0.16666667</v>
   <v>       0.00000000      0.33333333      0.16666667</v>
   <v>       0.08333333      0.33333333      0.16666667</v>
   <v>       0.16666667      0.33333333      0.16666667</v>
   <v>       0.25000000      0.33333333      0.16666667</v>
   <v>       0.33333333      0.33333333      0.16666667</v>
   <v>       0.41666667      0.33333333      0.16666667</v>
   <v>       0.50000000      0.33333333      0.16666667</v>
   <v>       0.00000000      0.41666667      0.16666667</v>
   <v>       0.08333333      0.41666667      0.16666667</v>
   <v>       0.16666667      0.41666667      0.16666667</v>
   <v>       0.25000000      0.41666667      0.16666667</v>
   <v>       0.33333333      0.41666667      0.16666667</v>
   <v>       0.41666667      0.41666667      0.16666667</v>
   <v>       0.50000000      0.41666667      0.16666667</v>
   <v>       0.00000000      0.50000000      0.16666667</v>
   <v>       0.08333333      0.50000000      0.16666667</v>
   <v>       0.16666667      0.50000000      0.16666667</v>
   <v>       0.25000000      0.50000000      0.16666667</v>
   <v>       0.33333333      0.50000000      0.16666667</v>
   <v>       0.41666667      0.50000000      0.16666667</v>
   <v>       0.50000000      0.50000000      0.16666667</v>
   <v>       0.00000000      0.25000000      0.25000000</v>
   <v>       0.08333333      0.25000000      0.25000000</v>
   <v>       0.16666667      0.25000000      0.25000000</v>
   <v>       0.25000000      0.25000000      0.25000000</v>
   <v>       0.33333333      0.25000000      0.25000000</v>
   <v>       0.41666667      0.25000000      0.25000000</v>
   <v>       0.50000000      0.25000000      0.25000000</v>
   <v>       0.00000000      0.33333333      0.25000000</v>
   <v>       0.08333333      0.33333333      0.25000000</v>
   <v>       0.16666667      0.33333333      0.25000000</v>
   <v>       0.25000000      0.33333333      0.25000000</v>
   <v>       0.33333333      0.33333333      0.25000000</v>
   <v>       0.41666667      0.33333333      0.25000000</v>
   <v>       0.50000000      0.33333333      0.25000000</v>
   <v>       0.00000000      0.41666667      0.25000000</v>
   <v>       0.08333333      0.41666667      0.25000000</v>
   <v>       0.16666667      0.41666667      0.25000000</v>
   <v>       0.25000000      0.41666667      0.25000000</v>
   <v>       0.33333333      0.41666667      0.25000000</v>
   <v>       0.41666667      0.41666667      0.25000000</v>
   <v>       0.50000000      0.41666667      0.25000000</v>
   <v>       0.00000000      0.50000000      0.25000000</v>
   <v>       0.08333333      0.50000000      0.25000000</v>
   <v>       0.16666667      0.50000000      0.25000000</v>
   <v>       0.25000000      0.50000000      0.25000000</v>
   <v>       0.33333333      0.50000000      0.25000000</v>
   <v>       0.41666667      0.50000000      0.25000000</v>
   <v>       0.50000000      0.50000000      0.25000000</v>
   <v>       0.00000000      0.33333333      0.33333333</v>
   <v>       0.08333333      0.33333333      0.33333333</v>
   <v>       0.16666667      0.33333333      0.33333333</v>
   <v>       0.25000000      0.33333333      0.33333333</v>
   <v>       0.33333333      0.33333333      0.33333333</v>
   <v>       0.41666667      0.33333333      0.33333333</v>
   <v>       0.50000000      0.33333333      0.33333333</v>
   <v>       0.00000000      0.41666667      0.33333333</v>
   <v>       0.08333333      0.41666667      0.33333333</v>
   <v>       0.16666667      0.41666667      0.33333333</v>
   <v>       0.25000000      0.41666667      0.33333333</v>
   <v>       0.33333333      0.41666667      0.33333333</v>
   <v>       0.41666667      0.41666667      0.33333333</v>
   <v>       0.50000000      0.41666667      0.33333333</v>
   <v>       0.00000000      0.50000000      0.33333333</v>
   <v>       0.08333333      0.50000000      0.33333333</v>
   <v>       0.16666667      0.50000000      0.33333333</v>
   <v>       0.25000000      0.50000000      0.33333333</v>
   <v>       0.33333333      0.50000000      0.33333333</v>
   <v>       0.41666667      0.50000000      0.33333333</v>
   <v>       0.50000000      0.50000000      0.33333333</v>
   <v>       0.00000000      0.41666667      0.41666667</v>
   <v>       0.08333333      0.41666667      0.41666667</v>
   <v>       0.16666667      0.41666667      0.41666667</v>
   <v>       0.25000000      0.41666667      0.41666667</v>
   <v>       0.33333333      0.41666667      0.41666667</v>
   <v>       0.41666667      0.41666667      0.41666667</v>
   <v>       0.50000000      0.41666667      0.41666667</v>
   <v>       0.00000000      0.50000000      0.41666667</v>
   <v>       0.08333333      0.50000000      0.41666667</v>
   <v>       0.16666667      0.50000000      0.41666667</v>
   <v>       0.25000000      0.50000000      0.41666667</v>
   <v>       0.33333333      0.50000000      0.41666667</v>
   <v>       0.41666667      0.50000000      0.41666667</v>
   <v>       0.50000000      0.50000000      0.41666667</v>
   <v>       0.00000000      0.50000000      0.50000000</v>
   <v>       0.08333333      0.50000000      0.50000000</v>
   <v>       0.16666667      0.50000000      0.50000000</v>
   <v>       0.25000000      0.50000000      0.50000000</v>
   <v>       0.33333333      0.50000000      0.50000000</v>
   <v>       0.41666667      0.50000000      0.50000000</v>
   <v>       0.50000000      0.50000000      0.50000000</v>
  </varray>
  <varray name="weights" >
   <v>       0.00057870</v>
   <v>       0.00115741</v>
   <v>       0.00115741</v>
   <v>       0.00115741</v>
   <v>       0.00115741</v>
   <v>       0.00115741</v>
   <v>       0.00057870</v>
   <v>       0.00231481</v>
   <v>       0.00462963</v>
   <v>       0.00462963</v>
   <v>       0.00462963</v>
   <v>       0.00462963</v>
   <v>       0.00462963</v>
   <v>       0.00231481</v>
   <v>       0.00231481</v>
   <v>       0.00462963</v>
   <v>       0.00462963</v>
   <v>       0.00462963</v>
   <v>       0.00462963</v>
   <v>       0.00462963</v>
   <v>       0.00231481</v>
   <v>       0.00231481</v>
   <v>       0.00462963</v>
   <v>       0.00462963</v>
   <v>       0.00462963</v>
   <v>       0.00462963</v>
   <v>       0.00462963</v>
   <v>       0.00231481</v>
   <v>       0.00231481</v>
   <v>       0.00462963</v>
   <v>       0.00462963</v>
   <v>       0.00462963</v>
   <v>       0.00462963</v>
   <v>       0.00462963</v>
   <v>       0.00231481</v>
   <v>       0.00231481</v>
   <v>       0.00462963</v>
   <v>       0.00462963</v>
   <v>       0.00462963</v>
   <v>       0.00462963</v>
   <v>       0.00462963</v>
   <v>       0.00231481</v>
   <v>       0.00115741</v>
   <v>       0.00231481</v>
   <v>       0.00231481</v>
   <v>       0.00231481</v>
   <v>       0.00231481</v>
   <v>       0.00231481</v>
   <v>       0.00115741</v>
   <v>       0.00231481</v>
   <v>       0.00462963</v>
   <v>       0.00462963</v>
   <v>       0.00462963</v>
   <v>       0.00462963</v>
   <v>       0.00462963</v>
   <v>       0.00231481</v>
   <v>       0.00462963</v>
   <v>       0.00925926</v>
   <v>       0.00925926</v>
   <v>       0.00925926</v>
   <v>       0.00925926</v>
   <v>       0.00925926</v>
   <v>       0.00462963</v>
   <v>       0.00462963</v>
   <v>       0.00925926</v>
   <v>       0.00925926</v>
   <v>       0.00925926</v>
   <v>       0.00925926</v>
   <v>       0.00925926</v>
   <v>       0.00462963</v>
   <v>       0.00462963</v>
   <v>       0.00925926</v>
   <v>       0.00925926</v>
   <v>       0.00925926</v>
   <v>       0.00925926</v>
   <v>       0.00925926</v>
   <v>       0.00462963</v>
   <v>       0.00462963</v>
   <v>       0.00925926</v>
   <v>       0.00925926</v>
   <v>       0.00925926</v>
   <v>       0.00925926</v>
   <v>       0.00925926</v>
   <v>       0.00462963</v>
   <v>       0.00231481</v>
   <v>       0.00462963</v>
   <v>       0.00462963</v>
   <v>       0.00462963</v>
   <v>       0.00462963</v>
   <v>       0.00462963</v>
   <v>       0.00231481</v>
   <v>       0.00231481</v>
   <v>       0.00462963</v>
   <v>       0.00462963</v>
   <v>       0.00462963</v>
   <v>       0.00462963</v>
   <v>       0.00462963</v>
   <v>       0.00231481</v>
   <v>       0.00462963</v>
   <v>       0.00925926</v>
   <v>       0.00925926</v>
   <v>       0.00925926</v>
   <v>       0.00925926</v>
   <v>       0.00925926</v>
   <v>       0.00462963</v>
   <v>       0.00462963</v>
   <v>       0.00925926</v>
   <v>       0.00925926</v>
   <v>       0.00925926</v>
   <v>       0.00925926</v>
   <v>       0.00925926</v>
   <v>       0.00462963</v>
   <v>       0.00462963</v>
   <v>       0.00925926</v>
   <v>       0.00925926</v>
   <v>       0.00925926</v>
   <v>       0.00925926</v>
   <v>       0.00925926</v>
   <v>       0.00462963</v>
   <v>       0.00231481</v>
   <v>       0.00462963</v>
   <v>       0.00462963</v>
   <v>       0.00462963</v>
   <v>       0.00462963</v>
   <v>       0.00462963</v>
   <v>       0.00231481</v>
   <v>       0.00231481</v>
   <v>       0.00462963</v>
   <v>       0.00462963</v>
   <v>       0.00462963</v>
   <v>       0.00462963</v>
   <v>       0.00462963</v>
   <v>       0.00231481</v>
   <v>       0.00462963</v>
   <v>       0.00925926</v>
   <v>       0.00925926</v>
   <v>       0.00925926</v>
   <v>       0.00925926</v>
   <v>       0.00925926</v>
   <v>       0.00462963</v>
   <v>       0.00462963</v>
   <v>       0.00925926</v>
   <v>       0.00925926</v>
   <v>       0.00925926</v>
   <v>       0.00925926</v>
   <v>       0.00925926</v>
   <v>       0.00462963</v>
   <v>       0.00231481</v>
   <v>       0.00462963</v>
   <v>       0.00462963</v>
   <v>       0.00462963</v>
   <v>       0.00462963</v>
   <v>       0.00462963</v>
   <v>       0.00231481</v>
   <v>       0.00231481</v>
   <v>       0.00462963</v>
   <v>       0.00462963</v>
   <v>       0.00462963</v>
   <v>       0.00462963</v>
   <v>       0.00462963</v>
   <v>       0.00231481</v>
   <v>       0.00462963</v>
   <v>       0.00925926</v>
   <v>       0.00925926</v>
   <v>       0.00925926</v>
   <v>       0.00925926</v>
   <v>       0.00925926</v>
   <v>       0.00462963</v>
   <v>       0.00231481</v>
   <v>       0.00462963</v>
   <v>       0.00462963</v>
   <v>       0.00462963</v>
   <v>       0.00462963</v>
   <v>       0.00462963</v>
   <v>       0.00231481</v>
   <v>       0.00231481</v>
   <v>       0.00462963</v>
   <v>       0.00462963</v>
   <v>       0.00462963</v>
   <v>       0.00462963</v>
   <v>       0.00462963</v>
   <v>       0.00231481</v>
   <v>       0.00231481</v>
   <v>       0.00462963</v>
   <v>       0.00462963</v>
   <v>       0.00462963</v>
   <v>       0.00462963</v>
   <v>       0.00462963</v>
   <v>       0.00231481</v>
   <v>       0.00057870</v>
   <v>       0.00115741</v>
   <v>       0.00115741</v>
   <v>       0.00115741</v>
   <v>       0.00115741</v>
   <v>       0.00115741</v>
   <v>       0.00057870</v>
  </varray>
 </kpoints>
 <parameters>
  <separator name="general" >
   <i type="string" name="SYSTEM">unknown system</i>
   <i type="logical" name="LCOMPAT"> F  </i>
  </separator>
  <separator name="electronic" >
   <i type="string" name="PREC">accura</i>
   <i name="ENMAX">    750.00000000</i>
   <i name="ENAUG">    412.49600000</i>
   <i name="EDIFF">      0.00000001</i>
   <i type="int" name="IALGO">    38</i>
   <i type="int" name="IWAVPR">    10</i>
   <i type="int" name="NBANDS">   211</i>
   <i name="NELECT">    352.00000000</i>
   <separator name="electronic smearing" >
    <i type="int" name="ISMEAR">     0</i>
    <i name="SIGMA">      0.01000000</i>
   </separator>
   <separator name="electronic projectors" >
    <i type="logical" name="LREAL"> F  </i>
    <v name="ROPT">      0.00000000</v>
    <i type="int" name="LMAXPAW">  -100</i>
    <i type="int" name="LMAXMIX">     2</i>
   </separator>
   <separator name="electronic startup" >
    <i type="int" name="ISTART">     0</i>
    <i type="int" name="ICHARG">     2</i>
    <i type="int" name="INIWAV">     1</i>
   </separator>
   <separator name="electronic spin" >
    <i type="int" name="ISPIN">     1</i>
    <i type="logical" name="LNONCOLLINEAR"> F  </i>
    <v name="MAGMOM">      1.00000000      1.00000000      1.00000000      1.00000000      1.00000000      1.00000000      1.00000000      1.00000000      1.00000000      1.00000000      1.00000000      1.00000000      1.00000000      1.00000000      1.00000000      1.00000000      1.00000000      1.00000000      1.00000000      1.00000000
      1.00000000      1.00000000      1.00000000      1.00000000      1.00000000      1.00000000      1.00000000      1.00000000      1.00000000      1.00000000      1.00000000      1.00000000</v>
    <i name="NUPDOWN">     -1.00000000</i>
    <i type="logical" name="LSORBIT"> F  </i>
    <v name="SAXIS">      0.00000000      0.00000000      1.00000000</v>
    <i type="logical" name="LSPIRAL"> F  </i>
    <v name="QSPIRAL">      0.00000000      0.00000000      0.00000000</v>
    <i type="logical" name="LZEROZ"> F  </i>
   </separator>
   <separator name="electronic exchange-correlation" >
    <i type="string" name="GGA">--</i>
    <i type="int" name="VOSKOWN">     0</i>
    <i type="logical" name="LASPH"> F  </i>
    <i type="logical" name="LMETAGGA"> F  </i>
    <i type="string" name="GGA2">--</i>
   </separator>
   <separator name="electronic convergence" >
    <i type="int" name="NELM">    60</i>
    <i type="int" name="NELMDL">     0</i>
    <i type="int" name="NELMIN">     2</i>
    <i name="ENINI">    750.00000000</i>
    <separator name="electronic convergence detail" >
     <i type="logical" name="LDIAG"> T  </i>
     <i name="WEIMIN">      0.00000000</i>
     <i name="EBREAK">      0.00000000</i>
     <i name="DEPER">      0.30000000</i>
     <i type="int" name="NRMM">     4</i>
     <i name="TIME">      0.10000000</i>
    </separator>
   </separator>
   <separator name="electronic mixer" >
    <i name="AMIX">      0.40000000</i>
    <i name="BMIX">      1.00000000</i>
    <i name="AMIN">      0.10000000</i>
    <i name="AMIX_MAG">      1.60000000</i>
    <i name="BMIX_MAG">      1.00000000</i>
    <separator name="electronic mixer details" >
     <i type="int" name="IMIX">     4</i>
     <i type="int" name="MAXMIX">   -45</i>
     <i name="WC">    100.00000000</i>
     <i type="int" name="INIMIX">     1</i>
     <i type="int" name="MIXPRE">     1</i>
     <i type="int" name="MREMOVE">     5</i>
    </separator>
   </separator>
   <separator name="electronic dipolcorrection" >
    <i type="int" name="IDIPOL">     0</i>
    <i type="logical" name="LDIPOL"> F  </i>
    <v name="DIPOL">   -100.00000000</v>
    <i name="EFIELD">      0.00000000</i>
   </separator>
  </separator>
  <separator name="grids" >
   <i type="int" name="NGX">    80</i>
   <i type="int" name="NGY">    80</i>
   <i type="int" name="NGZ">    80</i>
   <i type="int" name="NGXF">   160</i>
   <i type="int" name="NGYF">   160</i>
   <i type="int" name="NGZF">   160</i>
   <i type="logical" name="ADDGRID"> T  </i>
  </separator>
  <separator name="ionic" >
   <i type="int" name="NSW">     0</i>
   <i type="int" name="IBRION">    -1</i>
   <i type="int" name="ISIF">     2</i>
   <i name="PSTRESS">      0.00000000</i>
   <i name="EDIFFG">      0.00000010</i>
   <i type="int" name="NFREE">     0</i>
   <i name="POTIM">      0.50000000</i>
   <i name="SMASS">     -3.00000000</i>
  </separator>
  <separator name="ionic md" >
   <i name="TEBEG">      0.00010000</i>
   <i name="TEEND">      0.00010000</i>
   <i type="int" name="NBLOCK">     1</i>
   <i type="int" name="KBLOCK">     1</i>
   <i type="int" name="NPACO">   256</i>
   <i name="APACO">     16.00000000</i>
  </separator>
  <separator name="symmetry" >
   <i type="int" name="ISYM">     2</i>
   <i name="SYMPREC">      0.00001000</i>
  </separator>
  <separator name="dos" >
   <i type="logical" name="LORBIT"> F  </i>
   <v name="RWIGS">     -1.00000000</v>
   <i type="int" name="NEDOS">   301</i>
   <i name="EMIN">     10.00000000</i>
   <i name="EMAX">    -10.00000000</i>
  </separator>
  <separator name="writing" >
   <i type="int" name="NWRITE">     2</i>
   <i type="logical" name="LWAVE"> F  </i>
   <i type="logical" name="LCHARG"> F  </i>
   <i type="logical" name="LPARD"> F  </i>
   <i type="logical" name="LVTOT"> F  </i>
   <i type="logical" name="LELF"> F  </i>
   <i type="logical" name="LOPTICS"> F  </i>
   <i name="STM">      0.00000000</i>
  </separator>
  <separator name="performance" >
   <i type="int" name="NPAR">     8</i>
   <i type="int" name="NSIM">     4</i>
   <i type="int" name="NBLK">   256</i>
   <i type="logical" name="LPLANE"> T  </i>
   <i type="logical" name="LCRITICAL_MEM"> F  </i>
   <i type="logical" name="LSCALAPACK"> F  </i>
   <i type="logical" name="LSCALU"> F  </i>
   <i type="logical" name="LASYNC"> F  </i>
  </separator>
  <separator name="miscellaneous" >
   <i type="int" name="IDIOT">     3</i>
   <i type="logical" name="LMUSIC"> F  </i>
   <v name="POMASS">    107.86800000</v>
   <i type="logical" name="LCORR"> T  </i>
  </separator>
  <i type="logical" name="LREAL_COMPAT"> F  </i>
  <i type="logical" name="GGA_COMPAT"> T  </i>
  <i type="logical" name="LBERRY"> F  </i>
  <i type="int" name="ICORELEVEL">     0</i>
  <i type="logical" name="LDAU"> F  </i>
  <i type="int" name="I_CONSTRAINED_M">     0</i>
 </parameters>
 <atominfo>
  <atoms>      32</atoms>
  <types>       1</types>
  <array name="atoms" >
   <dimension dim="1">ion</dimension>
   <field type="string">element</field>
   <field type="int">atomtype</field>
   <set>
    <rc><c>Ag</c><c>   1</c></rc>
    <rc><c>Ag</c><c>   1</c></rc>
    <rc><c>Ag</c><c>   1</c></rc>
    <rc><c>Ag</c><c>   1</c></rc>
    <rc><c>Ag</c><c>   1</c></rc>
    <rc><c>Ag</c><c>   1</c></rc>
    <rc><c>Ag</c><c>   1</c></rc>
    <rc><c>Ag</c><c>   1</c></rc>
    <rc><c>Ag</c><c>   1</c></rc>
    <rc><c>Ag</c><c>   1</c></rc>
    <rc><c>Ag</c><c>   1</c></rc>
    <rc><c>Ag</c><c>   1</c></rc>
    <rc><c>Ag</c><c>   1</c></rc>
    <rc><c>Ag</c><c>   1</c></rc>
    <rc><c>Ag</c><c>   1</c></rc>
    <rc><c>Ag</c><c>   1</c></rc>
    <rc><c>Ag</c><c>   1</c></rc>
    <rc><c>Ag</c><c>   1</c></rc>
    <rc><c>Ag</c><c>   1</c></rc>
    <rc><c>Ag</c><c>   1</c></rc>
    <rc><c>Ag</c><c>   1</c></rc>
    <rc><c>Ag</c><c>   1</c></rc>
    <rc><c>Ag</c><c>   1</c></rc>
    <rc><c>Ag</c><c>   1</c></rc>
    <rc><c>Ag</c><c>   1</c></rc>
    <rc><c>Ag</c><c>   1</c></rc>
    <rc><c>Ag</c><c>   1</c></rc>
    <rc><c>Ag</c><c>   1</c></rc>
    <rc><c>Ag</c><c>   1</c></rc>
    <rc><c>Ag</c><c>   1</c></rc>
    <rc><c>Ag</c><c>   1</c></rc>
    <rc><c>Ag</c><c>   1</c></rc>
   </set>
  </array>
  <array name="atomtypes" >
   <dimension dim="1">type</dimension>
   <field type="int">atomspertype</field>
   <field type="string">element</field>
   <field>mass</field>
   <field>valence</field>
   <field type="string">pseudopotential</field>
   <set>
    <rc><c>  32</c><c>Ag</c><c>    107.86800000</c><c>     11.00000000</c><c> PAW_PBE Ag 06Sep2000                   </c></rc>
   </set>
  </array>
 </atominfo>
 <structure name="initialpos" >
  <crystal>
   <varray name="basis" >
    <v>       8.32644956      0.00000000      0.00000000</v>
    <v>       0.00000000      8.32644956      0.00000000</v>
    <v>       0.00000000      0.00000000      8.32644956</v>
   </varray>
   <i name="volume">    577.27076926</i>
   <varray name="rec_basis" >
    <v>       0.12009921      0.00000000      0.00000000</v>
    <v>       0.00000000      0.12009921      0.00000000</v>
    <v>       0.00000000      0.00000000      0.12009921</v>
   </varray>
  </crystal>
  <varray name="positions" >
   <v>       0.00120099      0.00000000      0.00000000</v>
   <v>       0.50000000      0.00000000      0.00000000</v>
   <v>       0.00000000      0.50000000      0.00000000</v>
   <v>       0.50000000      0.50000000      0.00000000</v>
   <v>       0.00000000      0.00000000      0.50000000</v>
   <v>       0.50000000      0.00000000      0.50000000</v>
   <v>       0.00000000      0.50000000      0.50000000</v>
   <v>       0.50000000      0.50000000      0.50000000</v>
   <v>       0.25000000      0.25000000      0.00000000</v>
   <v>       0.75000000      0.25000000      0.00000000</v>
   <v>       0.25000000      0.75000000      0.00000000</v>
   <v>       0.75000000      0.75000000      0.00000000</v>
   <v>       0.25000000      0.25000000      0.50000000</v>
   <v>       0.75000000      0.25000000      0.50000000</v>
   <v>       0.25000000      0.75000000      0.50000000</v>
   <v>       0.75000000      0.75000000      0.50000000</v>
   <v>       0.25000000      0.00000000      0.25000000</v>
   <v>       0.75000000      0.00000000      0.25000000</v>
   <v>       0.25000000      0.50000000      0.25000000</v>
   <v>       0.75000000      0.50000000      0.25000000</v>
   <v>       0.25000000      0.00000000      0.75000000</v>
   <v>       0.75000000      0.00000000      0.75000000</v>
   <v>       0.25000000      0.50000000      0.75000000</v>
   <v>       0.75000000      0.50000000      0.75000000</v>
   <v>       0.00000000      0.25000000      0.25000000</v>
   <v>       0.50000000      0.25000000      0.25000000</v>
   <v>       0.00000000      0.75000000      0.25000000</v>
   <v>       0.50000000      0.75000000      0.25000000</v>
   <v>       0.00000000      0.25000000      0.75000000</v>
   <v>       0.50000000      0.25000000      0.75000000</v>
   <v>       0.00000000      0.75000000      0.75000000</v>
   <v>       0.50000000      0.75000000      0.75000000</v>
  </varray>
 </structure>
 <calculation>
  <scstep>
   <time name="dav">11300.9011308.32</time>
   <time name="total">11306.3211313.75</time>
   <energy>
    <i name="alphaZ">   3149.98753919</i>
    <i name="ewald"> -30701.36009574</i>
    <i name="hartreedc">  -6761.35467741</i>
    <i name="XCdc">   -347.15833702</i>
    <i name="pawpsdc">  27861.41421209</i>
    <i name="pawaedc"> -26376.63839568</i>
    <i name="eentropy">     -0.00065398</i>
    <i name="bandstr">   4250.13106200</i>
    <i name="atom">  33197.19690173</i>
    <i name="e_fr_energy">   4272.21755518</i>
    <i name="e_wo_entrp">   4272.21820915</i>
    <i name="e_0_energy">   4272.21788216</i>
   </energy>
  </scstep>
  <scstep>
   <time name="dav">11285.9211292.49</time>
   <time name="total">11286.1511292.73</time>
   <energy>
    <i name="e_fr_energy">    121.66279495</i>
    <i name="e_wo_entrp">    121.66324305</i>
    <i name="e_0_energy">    121.66301900</i>
   </energy>
  </scstep>
  <scstep>
   <time name="dav">11686.3611728.48</time>
   <time name="total">11686.6011728.73</time>
   <energy>
    <i name="e_fr_energy">    -93.42332147</i>
    <i name="e_wo_entrp">    -93.42265881</i>
    <i name="e_0_energy">    -93.42299014</i>
   </energy>
  </scstep>
  <scstep>
   <time name="dav">11960.4511967.31</time>
   <time name="total">11960.6911967.56</time>
   <energy>
    <i name="e_fr_energy">    -97.56512523</i>
    <i name="e_wo_entrp">    -97.56441615</i>
    <i name="e_0_energy">    -97.56477069</i>
   </energy>
  </scstep>
  <scstep>
   <time name="dav">11796.5211839.55</time>
   <time name="total">12128.2412172.44</time>
   <energy>
    <i name="e_fr_energy">    -97.58709775</i>
    <i name="e_wo_entrp">    -97.58638869</i>
    <i name="e_0_energy">    -97.58674322</i>
   </energy>
  </scstep>
  <scstep>
   <time name="dav">11767.1311780.73</time>
   <time name="total">12104.7012118.70</time>
   <energy>
    <i name="e_fr_energy">    -90.73313433</i>
    <i name="e_wo_entrp">    -90.73248509</i>
    <i name="e_0_energy">    -90.73280971</i>
   </energy>
  </scstep>
  <scstep>
   <time name="dav">11625.4811667.60</time>
   <time name="total">11962.5612005.91</time>
   <energy>
    <i name="e_fr_energy">    -90.56140750</i>
    <i name="e_wo_entrp">    -90.56078298</i>
    <i name="e_0_energy">    -90.56109524</i>
   </energy>
  </scstep>
  <scstep>
   <time name="dav">11756.8911799.72</time>
   <time name="total">12093.9612138.02</time>
   <energy>
    <i name="e_fr_energy">    -90.47799775</i>
    <i name="e_wo_entrp">    -90.47736641</i>
    <i name="e_0_energy">    -90.47768208</i>
   </energy>
  </scstep>
  <scstep>
   <time name="dav">11879.8811888.84</time>
   <time name="total">12218.3712227.79</time>
   <energy>
    <i name="e_fr_energy">    -90.47894524</i>
    <i name="e_wo_entrp">    -90.47831109</i>
    <i name="e_0_energy">    -90.47862816</i>
   </energy>
  </scstep>
  <scstep>
   <time name="dav">11723.1911738.72</time>
   <time name="total">12061.5112077.54</time>
   <energy>
    <i name="e_fr_energy">    -90.47883440</i>
    <i name="e_wo_entrp">    -90.47820279</i>
    <i name="e_0_energy">    -90.47851860</i>
   </energy>
  </scstep>
  <scstep>
   <time name="dav">11910.1311919.86</time>
   <time name="total">12248.8812258.83</time>
   <energy>
    <i name="e_fr_energy">    -90.47882893</i>
    <i name="e_wo_entrp">    -90.47819761</i>
    <i name="e_0_energy">    -90.47851327</i>
   </energy>
  </scstep>
  <scstep>
   <time name="dav">11718.9911761.72</time>
   <time name="total">12056.6112100.51</time>
   <energy>
    <i name="e_fr_energy">    -90.47882554</i>
    <i name="e_wo_entrp">    -90.47819431</i>
    <i name="e_0_energy">    -90.47850993</i>
   </energy>
  </scstep>
  <scstep>
   <time name="dav">10484.7910522.00</time>
   <time name="total">10822.2710860.69</time>
   <energy>
    <i name="e_fr_energy">    -90.47882329</i>
    <i name="e_wo_entrp">    -90.47819207</i>
    <i name="e_0_energy">    -90.47850768</i>
   </energy>
  </scstep>
  <scstep>
   <time name="dav"> 7424.68 7450.81</time>
   <time name="total"> 7763.60 7790.90</time>
   <energy>
    <i name="e_fr_energy">    -90.47882303</i>
    <i name="e_wo_entrp">    -90.47819181</i>
    <i name="e_0_energy">    -90.47850742</i>
   </energy>
  </scstep>
  <scstep>
   <time name="dav"> 7386.84 7412.83</time>
   <time name="total"> 7392.23 7418.24</time>
   <energy>
    <i name="alphaZ">   3149.98753919</i>
    <i name="ewald"> -30701.36009574</i>
    <i name="hartreedc">  -6385.37459613</i>
    <i name="XCdc">   -360.98803268</i>
    <i name="pawpsdc">  27742.96169798</i>
    <i name="pawaedc"> -26325.48734196</i>
    <i name="eentropy">     -0.00063122</i>
    <i name="bandstr">   -407.41426421</i>
    <i name="atom">  33197.19690173</i>
    <i name="e_fr_energy">    -90.47882303</i>
    <i name="e_wo_entrp">    -90.47819182</i>
    <i name="e_0_energy">    -90.47850743</i>
   </energy>
  </scstep>
  <structure>
   <crystal>
    <varray name="basis" >
     <v>       8.32644956      0.00000000      0.00000000</v>
     <v>       0.00000000      8.32644956      0.00000000</v>
     <v>       0.00000000      0.00000000      8.32644956</v>
    </varray>
    <i name="volume">    577.27076926</i>
    <varray name="rec_basis" >
     <v>       0.12009921      0.00000000      0.00000000</v>
     <v>       0.00000000      0.12009921      0.00000000</v>
     <v>       0.00000000      0.00000000      0.12009921</v>
    </varray>
   </crystal>
   <varray name="positions" >
    <v>       0.00120099      0.00000000      0.00000000</v>
    <v>       0.50000000      0.00000000      0.00000000</v>
    <v>       0.00000000      0.50000000      0.00000000</v>
    <v>       0.50000000      0.50000000      0.00000000</v>
    <v>       0.00000000      0.00000000      0.50000000</v>
    <v>       0.50000000      0.00000000      0.50000000</v>
    <v>       0.00000000      0.50000000      0.50000000</v>
    <v>       0.50000000      0.50000000      0.50000000</v>
    <v>       0.25000000      0.25000000      0.00000000</v>
    <v>       0.75000000      0.25000000      0.00000000</v>
    <v>       0.25000000      0.75000000      0.00000000</v>
    <v>       0.75000000      0.75000000      0.00000000</v>
    <v>       0.25000000      0.25000000      0.50000000</v>
    <v>       0.75000000      0.25000000      0.50000000</v>
    <v>       0.25000000      0.75000000      0.50000000</v>
    <v>       0.75000000      0.75000000      0.50000000</v>
    <v>       0.25000000      0.00000000      0.25000000</v>
    <v>       0.75000000      0.00000000      0.25000000</v>
    <v>       0.25000000      0.50000000      0.25000000</v>
    <v>       0.75000000      0.50000000      0.25000000</v>
    <v>       0.25000000      0.00000000      0.75000000</v>
    <v>       0.75000000      0.00000000      0.75000000</v>
    <v>       0.25000000      0.50000000      0.75000000</v>
    <v>       0.75000000      0.50000000      0.75000000</v>
    <v>       0.00000000      0.25000000      0.25000000</v>
    <v>       0.50000000      0.25000000      0.25000000</v>
    <v>       0.00000000      0.75000000      0.25000000</v>
    <v>       0.50000000      0.75000000      0.25000000</v>
    <v>       0.00000000      0.25000000      0.75000000</v>
    <v>       0.50000000      0.25000000      0.75000000</v>
    <v>       0.00000000      0.75000000      0.75000000</v>
    <v>       0.50000000      0.75000000      0.75000000</v>
   </varray>
  </structure>
  <varray name="forces" >
   <v>      -0.04490819      0.00000000     -0.00000000</v>
   <v>       0.00114952     -0.00000000      0.00000000</v>
   <v>      -0.00032944      0.00000000     -0.00000000</v>
   <v>      -0.00043096     -0.00000000     -0.00000000</v>
   <v>      -0.00032944      0.00000000      0.00000000</v>
   <v>      -0.00043096     -0.00000000      0.00000000</v>
   <v>      -0.00007504      0.00000000     -0.00000000</v>
   <v>      -0.00016490     -0.00000000      0.00000000</v>
   <v>       0.00580109      0.00682327     -0.00000000</v>
   <v>       0.00561753     -0.00656729      0.00000000</v>
   <v>       0.00580109     -0.00682327     -0.00000000</v>
   <v>       0.00561753      0.00656729     -0.00000000</v>
   <v>       0.00022545      0.00008104     -0.00000000</v>
   <v>       0.00022480     -0.00007614     -0.00000000</v>
   <v>       0.00022545     -0.00008104     -0.00000000</v>
   <v>       0.00022480      0.00007614     -0.00000000</v>
   <v>       0.00580109      0.00000000      0.00682327</v>
   <v>       0.00561753      0.00000000     -0.00656729</v>
   <v>       0.00022545      0.00000000      0.00008104</v>
   <v>       0.00022480      0.00000000     -0.00007614</v>
   <v>       0.00580109      0.00000000     -0.00682327</v>
   <v>       0.00561753      0.00000000      0.00656729</v>
   <v>       0.00022545      0.00000000     -0.00008104</v>
   <v>       0.00022480      0.00000000      0.00007614</v>
   <v>      -0.00106373     -0.00000919     -0.00000919</v>
   <v>       0.00057471      0.00000262      0.00000262</v>
   <v>      -0.00106373      0.00000919     -0.00000919</v>
   <v>       0.00057471     -0.00000262      0.00000262</v>
   <v>      -0.00106373     -0.00000919      0.00000919</v>
   <v>       0.00057471      0.00000262     -0.00000262</v>
   <v>      -0.00106373      0.00000919      0.00000919</v>
   <v>       0.00057471     -0.00000262     -0.00000262</v>
  </varray>
  <varray name="stress" >
   <v>       0.24521293     -0.00000000      0.00000000</v>
   <v>       0.00000000      0.24480335      0.00000000</v>
   <v>      -0.00000000      0.00000000      0.24480335</v>
  </varray>
  <energy>
   <i name="e_fr_energy">    -90.47882303</i>
   <i name="e_wo_entrp">    -90.47850743</i>
   <i name="e_0_energy">     -0.00063122</i>
  </energy>
  <eigenvalues>
   <array>
    <dimension dim="1">band</dimension>
    <dimension dim="2">kpoint</dimension>
    <dimension dim="3">spin</dimension>
    <field>eigene</field>
    <field>occ</field>
    <set>
     <set comment="spin 1">
      <set comment="kpoint 1">
       <r>  -4.3313  1.0000</r>
       <r>  -3.0804  1.0000</r>
       <r>  -3.0804  1.0000</r>
       <r>  -3.0804  1.0000</r>
       <r>  -3.0455  1.0000</r>
       <r>  -3.0455  1.0000</r>
       <r>  -3.0455  1.0000</r>
       <r>  -3.0455  1.0000</r>
       <r>  -2.9623  1.0000</r>
       <r>  -2.9623  1.0000</r>
       <r>  -2.9623  1.0000</r>
       <r>  -2.6415  1.0000</r>
       <r>  -2.6397  1.0000</r>
       <r>  -2.6397  1.0000</r>
       <r>  -2.6397  1.0000</r>
       <r>  -2.6397  1.0000</r>
       <r>  -2.6380  1.0000</r>
       <r>  -2.3917  1.0000</r>
       <r>  -2.3901  1.0000</r>
       <r>  -2.3901  1.0000</r>
       <r>  -2.3901  1.0000</r>
       <r>  -2.3901  1.0000</r>
       <r>  -2.3885  1.0000</r>
       <r>  -2.3205  1.0000</r>
       <r>  -2.3189  1.0000</r>
       <r>  -2.3189  1.0000</r>
       <r>  -2.3188  1.0000</r>
       <r>  -2.3188  1.0000</r>
       <r>  -2.3172  1.0000</r>
       <r>  -2.0916  1.0000</r>
       <r>  -2.0916  1.0000</r>
       <r>  -2.0912  1.0000</r>
       <r>  -2.0905  1.0000</r>
       <r>  -2.0902  1.0000</r>
       <r>  -2.0902  1.0000</r>
       <r>  -2.0902  1.0000</r>
       <r>  -2.0902  1.0000</r>
       <r>  -2.0898  1.0000</r>
       <r>  -2.0891  1.0000</r>
       <r>  -2.0888  1.0000</r>
       <r>  -2.0888  1.0000</r>
       <r>  -1.8947  1.0000</r>
       <r>  -1.8927  1.0000</r>
       <r>  -1.8927  1.0000</r>
       <r>  -1.8918  1.0000</r>
       <r>  -1.8918  1.0000</r>
       <r>  -1.8918  1.0000</r>
       <r>  -1.8918  1.0000</r>
       <r>  -1.8918  1.0000</r>
       <r>  -1.8917  1.0000</r>
       <r>  -1.8909  1.0000</r>
       <r>  -1.8909  1.0000</r>
       <r>  -1.8890  1.0000</r>
       <r>  -1.8392  1.0000</r>
       <r>  -1.8392  1.0000</r>
       <r>  -1.8375  1.0000</r>
       <r>  -1.8375  1.0000</r>
       <r>  -1.8374  1.0000</r>
       <r>  -1.8374  1.0000</r>
       <r>  -1.8374  1.0000</r>
       <r>  -1.8374  1.0000</r>
       <r>  -1.8374  1.0000</r>
       <r>  -1.8373  1.0000</r>
       <r>  -1.8356  1.0000</r>
       <r>  -1.8356  1.0000</r>
       <r>  -1.6218  1.0000</r>
       <r>  -1.6218  1.0000</r>
       <r>  -1.6218  1.0000</r>
       <r>  -1.6217  1.0000</r>
       <r>  -1.6217  1.0000</r>
       <r>  -1.6217  1.0000</r>
       <r>  -1.6217  1.0000</r>
       <r>  -1.6217  1.0000</r>
       <r>  -1.6041  1.0000</r>
       <r>  -1.6041  1.0000</r>
       <r>  -1.6041  1.0000</r>
       <r>  -1.5093  1.0000</r>
       <r>  -1.5072  1.0000</r>
       <r>  -1.5069  1.0000</r>
       <r>  -1.5069  1.0000</r>
       <r>  -1.5067  1.0000</r>
       <r>  -1.5067  1.0000</r>
       <r>  -1.5067  1.0000</r>
       <r>  -1.5067  1.0000</r>
       <r>  -1.5066  1.0000</r>
       <r>  -1.5066  1.0000</r>
       <r>  -1.5063  1.0000</r>
       <r>  -1.5042  1.0000</r>
       <r>  -1.0051  1.0000</r>
       <r>  -1.0045  1.0000</r>
       <r>  -1.0036  1.0000</r>
       <r>  -1.0036  1.0000</r>
       <r>  -1.0032  1.0000</r>
       <r>  -1.0032  1.0000</r>
       <r>  -1.0032  1.0000</r>
       <r>  -1.0032  1.0000</r>
       <r>  -1.0027  1.0000</r>
       <r>  -1.0027  1.0000</r>
       <r>  -1.0019  1.0000</r>
       <r>  -1.0013  1.0000</r>
       <r>  -0.8098  1.0000</r>
       <r>  -0.8098  1.0000</r>
       <r>  -0.8079  1.0000</r>
       <r>  -0.8079  1.0000</r>
       <r>  -0.8077  1.0000</r>
       <r>  -0.8077  1.0000</r>
       <r>  -0.8077  1.0000</r>
       <r>  -0.8077  1.0000</r>
       <r>  -0.8076  1.0000</r>
       <r>  -0.8076  1.0000</r>
       <r>  -0.8057  1.0000</r>
       <r>  -0.8057  1.0000</r>
       <r>  -0.6675  1.0000</r>
       <r>  -0.6674  1.0000</r>
       <r>  -0.6543  1.0000</r>
       <r>  -0.6543  1.0000</r>
       <r>  -0.6527  1.0000</r>
       <r>  -0.6523  1.0000</r>
       <r>  -0.6520  1.0000</r>
       <r>  -0.6519  1.0000</r>
       <r>  -0.6519  1.0000</r>
       <r>  -0.6519  1.0000</r>
       <r>  -0.6519  1.0000</r>
       <r>  -0.6516  1.0000</r>
       <r>  -0.6503  1.0000</r>
       <r>  -0.6503  1.0000</r>
       <r>  -0.6494  1.0000</r>
       <r>  -0.6489  1.0000</r>
       <r>  -0.6487  1.0000</r>
       <r>  -0.6479  1.0000</r>
       <r>  -0.6479  1.0000</r>
       <r>  -0.6472  1.0000</r>
       <r>  -0.6259  1.0000</r>
       <r>  -0.6243  1.0000</r>
       <r>  -0.6243  1.0000</r>
       <r>  -0.6243  1.0000</r>
       <r>  -0.6242  1.0000</r>
       <r>  -0.6225  1.0000</r>
       <r>  -0.3310  1.0000</r>
       <r>  -0.3301  1.0000</r>
       <r>  -0.3301  1.0000</r>
       <r>  -0.3301  1.0000</r>
       <r>  -0.3301  1.0000</r>
       <r>  -0.3292  1.0000</r>
       <r>   0.0235  1.0000</r>
       <r>   0.0235  1.0000</r>
       <r>   0.0235  1.0000</r>
       <r>   0.0530  1.0000</r>
       <r>   0.0530  1.0000</r>
       <r>   0.0530  1.0000</r>
       <r>   0.0530  1.0000</r>
       <r>   0.0530  1.0000</r>
       <r>   0.0530  1.0000</r>
       <r>   0.0530  1.0000</r>
       <r>   0.0530  1.0000</r>
       <r>   0.2402  1.0000</r>
       <r>   0.2405  1.0000</r>
       <r>   0.2405  1.0000</r>
       <r>   0.2405  1.0000</r>
       <r>   0.2405  1.0000</r>
       <r>   0.2405  1.0000</r>
       <r>   0.2413  1.0000</r>
       <r>   0.2413  1.0000</r>
       <r>   0.2413  1.0000</r>
       <r>   0.2413  1.0000</r>
       <r>   0.2414  1.0000</r>
       <r>   0.2416  1.0000</r>
       <r>   2.4354  1.0000</r>
       <r>   2.4362  1.0000</r>
       <r>   2.4362  1.0000</r>
       <r>   2.4372  1.0000</r>
       <r>   2.4375  1.0000</r>
       <r>   2.4375  1.0000</r>
       <r>   2.4375  1.0000</r>
       <r>   2.4375  1.0000</r>
       <r>   2.4378  1.0000</r>
       <r>   2.4388  1.0000</r>
       <r>   2.4388  1.0000</r>
       <r>   2.4396  1.0000</r>
       <r>   2.7780  1.0000</r>
       <r>   2.7780  1.0000</r>
       <r>   2.7781  1.0000</r>
       <r>   2.7781  1.0000</r>
       <r>   4.6992  0.0000</r>
       <r>   4.6992  0.0000</r>
       <r>   4.6992  0.0000</r>
       <r>   6.3409  0.0000</r>
       <r>   6.3409  0.0000</r>
       <r>   6.3409  0.0000</r>
       <r>   6.3410  0.0000</r>
       <r>   8.7828  0.0000</r>
       <r>   8.7828  0.0000</r>
       <r>   8.7854  0.0000</r>
       <r>   8.7854  0.0000</r>
       <r>   8.7857  0.0000</r>
       <r>   8.7857  0.0000</r>
       <r>   8.7858  0.0000</r>
       <r>   8.7858  0.0000</r>
       <r>   8.7861  0.0000</r>
       <r>   8.7861  0.0000</r>
       <r>   8.7887  0.0000</r>
       <r>   8.7887  0.0000</r>
       <r>   9.3554  0.0000</r>
       <r>   9.3554  0.0000</r>
       <r>   9.3554  0.0000</r>
       <r>   9.7342  0.0000</r>
       <r>   9.7342  0.0000</r>
       <r>   9.7343  0.0000</r>
       <r>   9.7343  0.0000</r>
       <r>   9.7343  0.0000</r>
       <r>   9.7343  0.0000</r>
       <r>  10.9053  0.0000</r>
       <r>  10.9068  0.0000</r>
       <r>  10.9068  0.0000</r>
       <r>  10.9068  0.0000</r>
       <r>  10.9084  0.0000</r>
      </set>
      <set comment="kpoint 2">
       <r>  -4.3139  1.0000</r>
       <r>  -3.0734  1.0000</r>
       <r>  -3.0713  1.0000</r>
       <r>  -3.0713  1.0000</r>
       <r>  -3.0371  1.0000</r>
       <r>  -3.0371  1.0000</r>
       <r>  -3.0371  1.0000</r>
       <r>  -3.0371  1.0000</r>
       <r>  -2.9570  1.0000</r>
       <r>  -2.9543  1.0000</r>
       <r>  -2.9543  1.0000</r>
       <r>  -2.7383  1.0000</r>
       <r>  -2.6284  1.0000</r>
       <r>  -2.6283  1.0000</r>
       <r>  -2.6283  1.0000</r>
       <r>  -2.6283  1.0000</r>
       <r>  -2.6030  1.0000</r>
       <r>  -2.4068  1.0000</r>
       <r>  -2.4067  1.0000</r>
       <r>  -2.4065  1.0000</r>
       <r>  -2.3833  1.0000</r>
       <r>  -2.3833  1.0000</r>
       <r>  -2.3833  1.0000</r>
       <r>  -2.3832  1.0000</r>
       <r>  -2.3144  1.0000</r>
       <r>  -2.3144  1.0000</r>
       <r>  -2.3144  1.0000</r>
       <r>  -2.3143  1.0000</r>
       <r>  -2.2300  1.0000</r>
       <r>  -2.1555  1.0000</r>
       <r>  -2.1555  1.0000</r>
       <r>  -2.1554  1.0000</r>
       <r>  -2.1554  1.0000</r>
       <r>  -2.1072  1.0000</r>
       <r>  -2.1072  1.0000</r>
       <r>  -2.1072  1.0000</r>
       <r>  -2.1071  1.0000</r>
       <r>  -2.0714  1.0000</r>
       <r>  -2.0714  1.0000</r>
       <r>  -2.0714  1.0000</r>
       <r>  -2.0714  1.0000</r>
       <r>  -2.0122  1.0000</r>
       <r>  -2.0122  1.0000</r>
       <r>  -1.9287  1.0000</r>
       <r>  -1.9287  1.0000</r>
       <r>  -1.9287  1.0000</r>
       <r>  -1.9286  1.0000</r>
       <r>  -1.8632  1.0000</r>
       <r>  -1.8627  1.0000</r>
       <r>  -1.8627  1.0000</r>
       <r>  -1.8627  1.0000</r>
       <r>  -1.8566  1.0000</r>
       <r>  -1.8566  1.0000</r>
       <r>  -1.8566  1.0000</r>
       <r>  -1.8562  1.0000</r>
       <r>  -1.8403  1.0000</r>
       <r>  -1.8403  1.0000</r>
       <r>  -1.8403  1.0000</r>
       <r>  -1.8403  1.0000</r>
       <r>  -1.8366  1.0000</r>
       <r>  -1.8366  1.0000</r>
       <r>  -1.8366  1.0000</r>
       <r>  -1.8364  1.0000</r>
       <r>  -1.6504  1.0000</r>
       <r>  -1.6504  1.0000</r>
       <r>  -1.6245  1.0000</r>
       <r>  -1.6245  1.0000</r>
       <r>  -1.6245  1.0000</r>
       <r>  -1.6245  1.0000</r>
       <r>  -1.6156  1.0000</r>
       <r>  -1.6156  1.0000</r>
       <r>  -1.6156  1.0000</r>
       <r>  -1.6156  1.0000</r>
       <r>  -1.6106  1.0000</r>
       <r>  -1.5980  1.0000</r>
       <r>  -1.5980  1.0000</r>
       <r>  -1.5480  1.0000</r>
       <r>  -1.5480  1.0000</r>
       <r>  -1.5480  1.0000</r>
       <r>  -1.5480  1.0000</r>
       <r>  -1.5154  1.0000</r>
       <r>  -1.5154  1.0000</r>
       <r>  -1.5153  1.0000</r>
       <r>  -1.5153  1.0000</r>
       <r>  -1.4639  1.0000</r>
       <r>  -1.4639  1.0000</r>
       <r>  -1.4639  1.0000</r>
       <r>  -1.4639  1.0000</r>
       <r>  -1.0322  1.0000</r>
       <r>  -1.0321  1.0000</r>
       <r>  -1.0321  1.0000</r>
       <r>  -1.0321  1.0000</r>
       <r>  -0.9954  1.0000</r>
       <r>  -0.9954  1.0000</r>
       <r>  -0.9954  1.0000</r>
       <r>  -0.9954  1.0000</r>
       <r>  -0.9644  1.0000</r>
       <r>  -0.9644  1.0000</r>
       <r>  -0.9644  1.0000</r>
       <r>  -0.9644  1.0000</r>
       <r>  -0.9229  1.0000</r>
       <r>  -0.9229  1.0000</r>
       <r>  -0.9022  1.0000</r>
       <r>  -0.9022  1.0000</r>
       <r>  -0.9021  1.0000</r>
       <r>  -0.9021  1.0000</r>
       <r>  -0.8221  1.0000</r>
       <r>  -0.8082  1.0000</r>
       <r>  -0.8082  1.0000</r>
       <r>  -0.8082  1.0000</r>
       <r>  -0.8082  1.0000</r>
       <r>  -0.7060  1.0000</r>
       <r>  -0.7060  1.0000</r>
       <r>  -0.7059  1.0000</r>
       <r>  -0.7059  1.0000</r>
       <r>  -0.6884  1.0000</r>
       <r>  -0.6884  1.0000</r>
       <r>  -0.6739  1.0000</r>
       <r>  -0.6646  1.0000</r>
       <r>  -0.6489  1.0000</r>
       <r>  -0.6487  1.0000</r>
       <r>  -0.6487  1.0000</r>
       <r>  -0.6487  1.0000</r>
       <r>  -0.6324  1.0000</r>
       <r>  -0.6323  1.0000</r>
       <r>  -0.6215  1.0000</r>
       <r>  -0.6214  1.0000</r>
       <r>  -0.6214  1.0000</r>
       <r>  -0.6213  1.0000</r>
       <r>  -0.5844  1.0000</r>
       <r>  -0.5844  1.0000</r>
       <r>  -0.5843  1.0000</r>
       <r>  -0.5843  1.0000</r>
       <r>  -0.5370  1.0000</r>
       <r>  -0.5370  1.0000</r>
       <r>  -0.5370  1.0000</r>
       <r>  -0.5370  1.0000</r>
       <r>  -0.3750  1.0000</r>
       <r>  -0.3322  1.0000</r>
       <r>  -0.3183  1.0000</r>
       <r>  -0.3183  1.0000</r>
       <r>  -0.3183  1.0000</r>
       <r>  -0.3182  1.0000</r>
       <r>  -0.2849  1.0000</r>
       <r>   0.0149  1.0000</r>
       <r>   0.0149  1.0000</r>
       <r>   0.0204  1.0000</r>
       <r>   0.0299  1.0000</r>
       <r>   0.0299  1.0000</r>
       <r>   0.0299  1.0000</r>
       <r>   0.0299  1.0000</r>
       <r>   0.0454  1.0000</r>
       <r>   0.0454  1.0000</r>
       <r>   0.0454  1.0000</r>
       <r>   0.0454  1.0000</r>
       <r>   0.2095  1.0000</r>
       <r>   0.2095  1.0000</r>
       <r>   0.2297  1.0000</r>
       <r>   0.2297  1.0000</r>
       <r>   0.2297  1.0000</r>
       <r>   0.2297  1.0000</r>
       <r>   0.2299  1.0000</r>
       <r>   0.2299  1.0000</r>
       <r>   0.2402  1.0000</r>
       <r>   0.2405  1.0000</r>
       <r>   0.2413  1.0000</r>
       <r>   0.2416  1.0000</r>
       <r>   2.0681  1.0000</r>
       <r>   2.0681  1.0000</r>
       <r>   2.0681  1.0000</r>
       <r>   2.0681  1.0000</r>
       <r>   2.4407  1.0000</r>
       <r>   2.4407  1.0000</r>
       <r>   2.4407  1.0000</r>
       <r>   2.4407  1.0000</r>
       <r>   2.7667  1.0000</r>
       <r>   2.7667  1.0000</r>
       <r>   2.7667  1.0000</r>
       <r>   2.7667  1.0000</r>
       <r>   2.8383  1.0000</r>
       <r>   2.8383  1.0000</r>
       <r>   2.8383  1.0000</r>
       <r>   2.8383  1.0000</r>
       <r>   4.5678  0.0000</r>
       <r>   4.7447  0.0000</r>
       <r>   4.7447  0.0000</r>
       <r>   6.4006  0.0000</r>
       <r>   6.4006  0.0000</r>
       <r>   6.4006  0.0000</r>
       <r>   6.4006  0.0000</r>
       <r>   8.2919  0.0000</r>
       <r>   8.2919  0.0000</r>
       <r>   8.4559  0.0000</r>
       <r>   8.4559  0.0000</r>
       <r>   8.4560  0.0000</r>
       <r>   8.4560  0.0000</r>
       <r>   8.8129  0.0000</r>
       <r>   8.8129  0.0000</r>
       <r>   8.8129  0.0000</r>
       <r>   8.8129  0.0000</r>
       <r>   9.2874  0.0000</r>
       <r>   9.2874  0.0000</r>
       <r>   9.3584  0.0000</r>
       <r>   9.3584  0.0000</r>
       <r>   9.5146  0.0000</r>
       <r>   9.7186  0.0000</r>
       <r>   9.7186  0.0000</r>
       <r>   9.9280  0.0000</r>
       <r>   9.9280  0.0000</r>
       <r>   9.9280  0.0000</r>
       <r>   9.9280  0.0000</r>
       <r>  10.9495  0.0000</r>
       <r>  10.9495  0.0000</r>
       <r>  11.0798  0.0000</r>
       <r>  11.0799  0.0000</r>
       <r>  11.0799  0.0000</r>
      </set>
      <set comment="kpoint 3">
       <r>  -4.2617  1.0000</r>
       <r>  -3.0527  1.0000</r>
       <r>  -3.0445  1.0000</r>
       <r>  -3.0445  1.0000</r>
       <r>  -3.0120  1.0000</r>
       <r>  -3.0120  1.0000</r>
       <r>  -3.0120  1.0000</r>
       <r>  -3.0120  1.0000</r>
       <r>  -2.9413  1.0000</r>
       <r>  -2.9303  1.0000</r>
       <r>  -2.9303  1.0000</r>
       <r>  -2.8967  1.0000</r>
       <r>  -2.6150  1.0000</r>
       <r>  -2.5945  1.0000</r>
       <r>  -2.5945  1.0000</r>
       <r>  -2.5945  1.0000</r>
       <r>  -2.5945  1.0000</r>
       <r>  -2.4915  1.0000</r>
       <r>  -2.4534  1.0000</r>
       <r>  -2.4534  1.0000</r>
       <r>  -2.3634  1.0000</r>
       <r>  -2.3634  1.0000</r>
       <r>  -2.3634  1.0000</r>
       <r>  -2.3634  1.0000</r>
       <r>  -2.3010  1.0000</r>
       <r>  -2.3010  1.0000</r>
       <r>  -2.3010  1.0000</r>
       <r>  -2.3009  1.0000</r>
       <r>  -2.2778  1.0000</r>
       <r>  -2.2777  1.0000</r>
       <r>  -2.2777  1.0000</r>
       <r>  -2.2777  1.0000</r>
       <r>  -2.1737  1.0000</r>
       <r>  -2.1737  1.0000</r>
       <r>  -2.1414  1.0000</r>
       <r>  -2.1208  1.0000</r>
       <r>  -2.1208  1.0000</r>
       <r>  -2.1208  1.0000</r>
       <r>  -2.1208  1.0000</r>
       <r>  -2.0572  1.0000</r>
       <r>  -2.0572  1.0000</r>
       <r>  -2.0572  1.0000</r>
       <r>  -2.0572  1.0000</r>
       <r>  -1.9722  1.0000</r>
       <r>  -1.9722  1.0000</r>
       <r>  -1.9722  1.0000</r>
       <r>  -1.9721  1.0000</r>
       <r>  -1.8484  1.0000</r>
       <r>  -1.8484  1.0000</r>
       <r>  -1.8484  1.0000</r>
       <r>  -1.8484  1.0000</r>
       <r>  -1.8422  1.0000</r>
       <r>  -1.8417  1.0000</r>
       <r>  -1.8417  1.0000</r>
       <r>  -1.8417  1.0000</r>
       <r>  -1.8344  1.0000</r>
       <r>  -1.8344  1.0000</r>
       <r>  -1.8344  1.0000</r>
       <r>  -1.8340  1.0000</r>
       <r>  -1.8120  1.0000</r>
       <r>  -1.8120  1.0000</r>
       <r>  -1.8120  1.0000</r>
       <r>  -1.8120  1.0000</r>
       <r>  -1.6328  1.0000</r>
       <r>  -1.6327  1.0000</r>
       <r>  -1.6327  1.0000</r>
       <r>  -1.6327  1.0000</r>
       <r>  -1.6298  1.0000</r>
       <r>  -1.6191  1.0000</r>
       <r>  -1.6191  1.0000</r>
       <r>  -1.6191  1.0000</r>
       <r>  -1.6190  1.0000</r>
       <r>  -1.5972  1.0000</r>
       <r>  -1.5972  1.0000</r>
       <r>  -1.5972  1.0000</r>
       <r>  -1.5972  1.0000</r>
       <r>  -1.5798  1.0000</r>
       <r>  -1.5798  1.0000</r>
       <r>  -1.5637  1.0000</r>
       <r>  -1.5636  1.0000</r>
       <r>  -1.5636  1.0000</r>
       <r>  -1.5636  1.0000</r>
       <r>  -1.4525  1.0000</r>
       <r>  -1.4525  1.0000</r>
       <r>  -1.3483  1.0000</r>
       <r>  -1.3483  1.0000</r>
       <r>  -1.3483  1.0000</r>
       <r>  -1.3483  1.0000</r>
       <r>  -1.0992  1.0000</r>
       <r>  -1.0992  1.0000</r>
       <r>  -1.0992  1.0000</r>
       <r>  -1.0992  1.0000</r>
       <r>  -1.0458  1.0000</r>
       <r>  -1.0458  1.0000</r>
       <r>  -1.0458  1.0000</r>
       <r>  -1.0458  1.0000</r>
       <r>  -1.0324  1.0000</r>
       <r>  -1.0324  1.0000</r>
       <r>  -0.9427  1.0000</r>
       <r>  -0.9426  1.0000</r>
       <r>  -0.9426  1.0000</r>
       <r>  -0.9426  1.0000</r>
       <r>  -0.9285  1.0000</r>
       <r>  -0.9022  1.0000</r>
       <r>  -0.9022  1.0000</r>
       <r>  -0.9021  1.0000</r>
       <r>  -0.9021  1.0000</r>
       <r>  -0.8094  1.0000</r>
       <r>  -0.8094  1.0000</r>
       <r>  -0.8094  1.0000</r>
       <r>  -0.8094  1.0000</r>
       <r>  -0.7467  1.0000</r>
       <r>  -0.7467  1.0000</r>
       <r>  -0.7467  1.0000</r>
       <r>  -0.7467  1.0000</r>
       <r>  -0.6931  1.0000</r>
       <r>  -0.6562  1.0000</r>
       <r>  -0.6493  1.0000</r>
       <r>  -0.6492  1.0000</r>
       <r>  -0.6492  1.0000</r>
       <r>  -0.6492  1.0000</r>
       <r>  -0.5862  1.0000</r>
       <r>  -0.5861  1.0000</r>
       <r>  -0.5669  1.0000</r>
       <r>  -0.5669  1.0000</r>
       <r>  -0.5501  1.0000</r>
       <r>  -0.5501  1.0000</r>
       <r>  -0.5501  1.0000</r>
       <r>  -0.5501  1.0000</r>
       <r>  -0.5043  1.0000</r>
       <r>  -0.5043  1.0000</r>
       <r>  -0.5043  1.0000</r>
       <r>  -0.5043  1.0000</r>
       <r>  -0.4589  1.0000</r>
       <r>  -0.4589  1.0000</r>
       <r>  -0.4589  1.0000</r>
       <r>  -0.4589  1.0000</r>
       <r>  -0.4189  1.0000</r>
       <r>  -0.2403  1.0000</r>
       <r>  -0.2382  1.0000</r>
       <r>  -0.2382  1.0000</r>
       <r>  -0.2382  1.0000</r>
       <r>  -0.2382  1.0000</r>
       <r>  -0.0378  1.0000</r>
       <r>  -0.0378  1.0000</r>
       <r>  -0.0378  1.0000</r>
       <r>  -0.0378  1.0000</r>
       <r>  -0.0107  1.0000</r>
       <r>  -0.0107  1.0000</r>
       <r>   0.0112  1.0000</r>
       <r>   0.0226  1.0000</r>
       <r>   0.0226  1.0000</r>
       <r>   0.0226  1.0000</r>
       <r>   0.0226  1.0000</r>
       <r>   0.0416  1.0000</r>
       <r>   0.1206  1.0000</r>
       <r>   0.1206  1.0000</r>
       <r>   0.1955  1.0000</r>
       <r>   0.1955  1.0000</r>
       <r>   0.1955  1.0000</r>
       <r>   0.1955  1.0000</r>
       <r>   0.1985  1.0000</r>
       <r>   0.1985  1.0000</r>
       <r>   0.2402  1.0000</r>
       <r>   0.2405  1.0000</r>
       <r>   0.2413  1.0000</r>
       <r>   0.2416  1.0000</r>
       <r>   1.7276  1.0000</r>
       <r>   1.7276  1.0000</r>
       <r>   1.7276  1.0000</r>
       <r>   1.7276  1.0000</r>
       <r>   2.4502  1.0000</r>
       <r>   2.4503  1.0000</r>
       <r>   2.4503  1.0000</r>
       <r>   2.4503  1.0000</r>
       <r>   2.7356  1.0000</r>
       <r>   2.7356  1.0000</r>
       <r>   2.7356  1.0000</r>
       <r>   2.7356  1.0000</r>
       <r>   3.2721  0.0000</r>
       <r>   3.2721  0.0000</r>
       <r>   3.2722  0.0000</r>
       <r>   3.2722  0.0000</r>
       <r>   4.2181  0.0000</r>
       <r>   4.8775  0.0000</r>
       <r>   4.8775  0.0000</r>
       <r>   6.5746  0.0000</r>
       <r>   6.5746  0.0000</r>
       <r>   6.5746  0.0000</r>
       <r>   6.5747  0.0000</r>
       <r>   7.8089  0.0000</r>
       <r>   7.8089  0.0000</r>
       <r>   7.8543  0.0000</r>
       <r>   7.8543  0.0000</r>
       <r>   7.8543  0.0000</r>
       <r>   7.8543  0.0000</r>
       <r>   8.8938  0.0000</r>
       <r>   8.8938  0.0000</r>
       <r>   8.8938  0.0000</r>
       <r>   8.8938  0.0000</r>
       <r>   9.3674  0.0000</r>
       <r>   9.3674  0.0000</r>
       <r>   9.6779  0.0000</r>
       <r>   9.6779  0.0000</r>
       <r>   9.7935  0.0000</r>
       <r>   9.7935  0.0000</r>
       <r>   9.9476  0.0000</r>
       <r>  10.1424  0.0000</r>
       <r>  10.1424  0.0000</r>
       <r>  10.1424  0.0000</r>
       <r>  10.1424  0.0000</r>
       <r>  10.5928  0.0000</r>
       <r>  10.5928  0.0000</r>
       <r>  10.5928  0.0000</r>
       <r>  10.5928  0.0000</r>
       <r>  11.0827  0.0000</r>
      </set>
      <set comment="kpoint 4">
       <r>  -4.1755  1.0000</r>
       <r>  -3.0964  1.0000</r>
       <r>  -3.0190  1.0000</r>
       <r>  -3.0007  1.0000</r>
       <r>  -3.0007  1.0000</r>
       <r>  -2.9704  1.0000</r>
       <r>  -2.9704  1.0000</r>
       <r>  -2.9704  1.0000</r>
       <r>  -2.9704  1.0000</r>
       <r>  -2.9154  1.0000</r>
       <r>  -2.8903  1.0000</r>
       <r>  -2.8903  1.0000</r>
       <r>  -2.6581  1.0000</r>
       <r>  -2.5726  1.0000</r>
       <r>  -2.5397  1.0000</r>
       <r>  -2.5396  1.0000</r>
       <r>  -2.5396  1.0000</r>
       <r>  -2.5396  1.0000</r>
       <r>  -2.5232  1.0000</r>
       <r>  -2.5231  1.0000</r>
       <r>  -2.4080  1.0000</r>
       <r>  -2.4080  1.0000</r>
       <r>  -2.4080  1.0000</r>
       <r>  -2.4079  1.0000</r>
       <r>  -2.3317  1.0000</r>
       <r>  -2.3317  1.0000</r>
       <r>  -2.3317  1.0000</r>
       <r>  -2.3317  1.0000</r>
       <r>  -2.3214  1.0000</r>
       <r>  -2.3214  1.0000</r>
       <r>  -2.2789  1.0000</r>
       <r>  -2.2788  1.0000</r>
       <r>  -2.2788  1.0000</r>
       <r>  -2.2788  1.0000</r>
       <r>  -2.1325  1.0000</r>
       <r>  -2.1325  1.0000</r>
       <r>  -2.1325  1.0000</r>
       <r>  -2.1325  1.0000</r>
       <r>  -2.0622  1.0000</r>
       <r>  -2.0622  1.0000</r>
       <r>  -2.0622  1.0000</r>
       <r>  -2.0622  1.0000</r>
       <r>  -2.0548  1.0000</r>
       <r>  -2.0203  1.0000</r>
       <r>  -2.0203  1.0000</r>
       <r>  -2.0203  1.0000</r>
       <r>  -2.0203  1.0000</r>
       <r>  -1.8593  1.0000</r>
       <r>  -1.8593  1.0000</r>
       <r>  -1.8593  1.0000</r>
       <r>  -1.8592  1.0000</r>
       <r>  -1.8320  1.0000</r>
       <r>  -1.8311  1.0000</r>
       <r>  -1.8311  1.0000</r>
       <r>  -1.8310  1.0000</r>
       <r>  -1.8282  1.0000</r>
       <r>  -1.8282  1.0000</r>
       <r>  -1.8282  1.0000</r>
       <r>  -1.8273  1.0000</r>
       <r>  -1.7803  1.0000</r>
       <r>  -1.7803  1.0000</r>
       <r>  -1.7803  1.0000</r>
       <r>  -1.7802  1.0000</r>
       <r>  -1.6986  1.0000</r>
       <r>  -1.6986  1.0000</r>
       <r>  -1.6986  1.0000</r>
       <r>  -1.6985  1.0000</r>
       <r>  -1.6615  1.0000</r>
       <r>  -1.6459  1.0000</r>
       <r>  -1.6459  1.0000</r>
       <r>  -1.6459  1.0000</r>
       <r>  -1.6459  1.0000</r>
       <r>  -1.6133  1.0000</r>
       <r>  -1.6132  1.0000</r>
       <r>  -1.6132  1.0000</r>
       <r>  -1.6132  1.0000</r>
       <r>  -1.5668  1.0000</r>
       <r>  -1.5668  1.0000</r>
       <r>  -1.5668  1.0000</r>
       <r>  -1.5668  1.0000</r>
       <r>  -1.5496  1.0000</r>
       <r>  -1.5496  1.0000</r>
       <r>  -1.2454  1.0000</r>
       <r>  -1.2454  1.0000</r>
       <r>  -1.1889  1.0000</r>
       <r>  -1.1888  1.0000</r>
       <r>  -1.1888  1.0000</r>
       <r>  -1.1888  1.0000</r>
       <r>  -1.1856  1.0000</r>
       <r>  -1.1855  1.0000</r>
       <r>  -1.1855  1.0000</r>
       <r>  -1.1854  1.0000</r>
       <r>  -1.1794  1.0000</r>
       <r>  -1.1793  1.0000</r>
       <r>  -1.1793  1.0000</r>
       <r>  -1.1793  1.0000</r>
       <r>  -1.1348  1.0000</r>
       <r>  -1.1348  1.0000</r>
       <r>  -0.9634  1.0000</r>
       <r>  -0.8659  1.0000</r>
       <r>  -0.8658  1.0000</r>
       <r>  -0.8658  1.0000</r>
       <r>  -0.8658  1.0000</r>
       <r>  -0.8368  1.0000</r>
       <r>  -0.8368  1.0000</r>
       <r>  -0.8368  1.0000</r>
       <r>  -0.8367  1.0000</r>
       <r>  -0.8112  1.0000</r>
       <r>  -0.8112  1.0000</r>
       <r>  -0.8112  1.0000</r>
       <r>  -0.8111  1.0000</r>
       <r>  -0.7756  1.0000</r>
       <r>  -0.7756  1.0000</r>
       <r>  -0.7756  1.0000</r>
       <r>  -0.7756  1.0000</r>
       <r>  -0.7241  1.0000</r>
       <r>  -0.6519  1.0000</r>
       <r>  -0.6519  1.0000</r>
       <r>  -0.6519  1.0000</r>
       <r>  -0.6519  1.0000</r>
       <r>  -0.6423  1.0000</r>
       <r>  -0.5174  1.0000</r>
       <r>  -0.5174  1.0000</r>
       <r>  -0.4638  1.0000</r>
       <r>  -0.4632  1.0000</r>
       <r>  -0.4632  1.0000</r>
       <r>  -0.4632  1.0000</r>
       <r>  -0.4627  1.0000</r>
       <r>  -0.4626  1.0000</r>
       <r>  -0.4626  1.0000</r>
       <r>  -0.4626  1.0000</r>
       <r>  -0.4605  1.0000</r>
       <r>  -0.4452  1.0000</r>
       <r>  -0.4452  1.0000</r>
       <r>  -0.4138  1.0000</r>
       <r>  -0.4138  1.0000</r>
       <r>  -0.4137  1.0000</r>
       <r>  -0.4137  1.0000</r>
       <r>  -0.1968  1.0000</r>
       <r>  -0.1452  1.0000</r>
       <r>  -0.1451  1.0000</r>
       <r>  -0.1451  1.0000</r>
       <r>  -0.1451  1.0000</r>
       <r>  -0.0694  1.0000</r>
       <r>  -0.0694  1.0000</r>
       <r>  -0.0694  1.0000</r>
       <r>  -0.0694  1.0000</r>
       <r>  -0.0526  1.0000</r>
       <r>  -0.0526  1.0000</r>
       <r>  -0.0164  1.0000</r>
       <r>  -0.0164  1.0000</r>
       <r>  -0.0147  1.0000</r>
       <r>  -0.0147  1.0000</r>
       <r>  -0.0147  1.0000</r>
       <r>  -0.0147  1.0000</r>
       <r>  -0.0040  1.0000</r>
       <r>   0.1406  1.0000</r>
       <r>   0.1406  1.0000</r>
       <r>   0.1406  1.0000</r>
       <r>   0.1406  1.0000</r>
       <r>   0.1475  1.0000</r>
       <r>   0.1475  1.0000</r>
       <r>   0.2402  1.0000</r>
       <r>   0.2406  1.0000</r>
       <r>   0.2412  1.0000</r>
       <r>   0.2416  1.0000</r>
       <r>   0.4799  1.0000</r>
       <r>   1.4130  1.0000</r>
       <r>   1.4130  1.0000</r>
       <r>   1.4130  1.0000</r>
       <r>   1.4130  1.0000</r>
       <r>   2.4663  1.0000</r>
       <r>   2.4663  1.0000</r>
       <r>   2.4663  1.0000</r>
       <r>   2.4663  1.0000</r>
       <r>   2.6921  1.0000</r>
       <r>   2.6921  1.0000</r>
       <r>   2.6921  1.0000</r>
       <r>   2.6921  1.0000</r>
       <r>   3.7357  0.0000</r>
       <r>   3.7402  0.0000</r>
       <r>   3.7402  0.0000</r>
       <r>   3.7402  0.0000</r>
       <r>   3.7403  0.0000</r>
       <r>   5.0874  0.0000</r>
       <r>   5.0874  0.0000</r>
       <r>   6.8509  0.0000</r>
       <r>   6.8509  0.0000</r>
       <r>   6.8510  0.0000</r>
       <r>   6.8510  0.0000</r>
       <r>   7.2089  0.0000</r>
       <r>   7.2089  0.0000</r>
       <r>   7.2089  0.0000</r>
       <r>   7.2089  0.0000</r>
       <r>   7.3400  0.0000</r>
       <r>   7.3400  0.0000</r>
       <r>   9.0265  0.0000</r>
       <r>   9.0265  0.0000</r>
       <r>   9.0265  0.0000</r>
       <r>   9.0265  0.0000</r>
       <r>   9.3829  0.0000</r>
       <r>   9.3829  0.0000</r>
       <r>   9.6245  0.0000</r>
       <r>   9.6245  0.0000</r>
       <r>   9.9260  0.0000</r>
       <r>   9.9260  0.0000</r>
       <r>   9.9260  0.0000</r>
       <r>   9.9260  0.0000</r>
       <r>  10.2785  0.0000</r>
       <r>  10.2785  0.0000</r>
       <r>  10.2785  0.0000</r>
       <r>  10.2785  0.0000</r>
       <r>  10.3007  0.0000</r>
       <r>  10.3007  0.0000</r>
       <r>  10.5693  0.0000</r>
       <r>  10.7100  0.0000</r>
      </set>
      <set comment="kpoint 5">
       <r>  -4.0565  1.0000</r>
       <r>  -3.3134  1.0000</r>
       <r>  -2.9733  1.0000</r>
       <r>  -2.9415  1.0000</r>
       <r>  -2.9415  1.0000</r>
       <r>  -2.9126  1.0000</r>
       <r>  -2.9126  1.0000</r>
       <r>  -2.9126  1.0000</r>
       <r>  -2.9126  1.0000</r>
       <r>  -2.8796  1.0000</r>
       <r>  -2.8345  1.0000</r>
       <r>  -2.8345  1.0000</r>
       <r>  -2.7184  1.0000</r>
       <r>  -2.6484  1.0000</r>
       <r>  -2.6072  1.0000</r>
       <r>  -2.6072  1.0000</r>
       <r>  -2.5330  1.0000</r>
       <r>  -2.5330  1.0000</r>
       <r>  -2.5330  1.0000</r>
       <r>  -2.5330  1.0000</r>
       <r>  -2.4659  1.0000</r>
       <r>  -2.4659  1.0000</r>
       <r>  -2.4659  1.0000</r>
       <r>  -2.4659  1.0000</r>
       <r>  -2.4544  1.0000</r>
       <r>  -2.4544  1.0000</r>
       <r>  -2.2908  1.0000</r>
       <r>  -2.2908  1.0000</r>
       <r>  -2.2908  1.0000</r>
       <r>  -2.2908  1.0000</r>
       <r>  -2.2488  1.0000</r>
       <r>  -2.2488  1.0000</r>
       <r>  -2.2488  1.0000</r>
       <r>  -2.2488  1.0000</r>
       <r>  -2.1464  1.0000</r>
       <r>  -2.1463  1.0000</r>
       <r>  -2.1463  1.0000</r>
       <r>  -2.1463  1.0000</r>
       <r>  -2.1044  1.0000</r>
       <r>  -2.1044  1.0000</r>
       <r>  -2.1043  1.0000</r>
       <r>  -2.1043  1.0000</r>
       <r>  -2.0707  1.0000</r>
       <r>  -2.0707  1.0000</r>
       <r>  -2.0707  1.0000</r>
       <r>  -2.0706  1.0000</r>
       <r>  -1.9716  1.0000</r>
       <r>  -1.8691  1.0000</r>
       <r>  -1.8691  1.0000</r>
       <r>  -1.8691  1.0000</r>
       <r>  -1.8691  1.0000</r>
       <r>  -1.8275  1.0000</r>
       <r>  -1.8270  1.0000</r>
       <r>  -1.8270  1.0000</r>
       <r>  -1.8270  1.0000</r>
       <r>  -1.8210  1.0000</r>
       <r>  -1.8210  1.0000</r>
       <r>  -1.8210  1.0000</r>
       <r>  -1.8205  1.0000</r>
       <r>  -1.7720  1.0000</r>
       <r>  -1.7719  1.0000</r>
       <r>  -1.7719  1.0000</r>
       <r>  -1.7719  1.0000</r>
       <r>  -1.7542  1.0000</r>
       <r>  -1.7542  1.0000</r>
       <r>  -1.7542  1.0000</r>
       <r>  -1.7541  1.0000</r>
       <r>  -1.7047  1.0000</r>
       <r>  -1.6631  1.0000</r>
       <r>  -1.6631  1.0000</r>
       <r>  -1.6631  1.0000</r>
       <r>  -1.6631  1.0000</r>
       <r>  -1.6269  1.0000</r>
       <r>  -1.6268  1.0000</r>
       <r>  -1.6268  1.0000</r>
       <r>  -1.6268  1.0000</r>
       <r>  -1.5249  1.0000</r>
       <r>  -1.5249  1.0000</r>
       <r>  -1.5249  1.0000</r>
       <r>  -1.5249  1.0000</r>
       <r>  -1.5076  1.0000</r>
       <r>  -1.5076  1.0000</r>
       <r>  -1.3140  1.0000</r>
       <r>  -1.3140  1.0000</r>
       <r>  -1.3140  1.0000</r>
       <r>  -1.3140  1.0000</r>
       <r>  -1.2610  1.0000</r>
       <r>  -1.2610  1.0000</r>
       <r>  -1.2610  1.0000</r>
       <r>  -1.2610  1.0000</r>
       <r>  -1.2291  1.0000</r>
       <r>  -1.2291  1.0000</r>
       <r>  -1.0315  1.0000</r>
       <r>  -1.0315  1.0000</r>
       <r>  -1.0080  1.0000</r>
       <r>  -1.0080  1.0000</r>
       <r>  -1.0080  1.0000</r>
       <r>  -1.0080  1.0000</r>
       <r>  -0.9518  1.0000</r>
       <r>  -0.8127  1.0000</r>
       <r>  -0.8127  1.0000</r>
       <r>  -0.8127  1.0000</r>
       <r>  -0.8127  1.0000</r>
       <r>  -0.7946  1.0000</r>
       <r>  -0.7945  1.0000</r>
       <r>  -0.7945  1.0000</r>
       <r>  -0.7945  1.0000</r>
       <r>  -0.7820  1.0000</r>
       <r>  -0.7816  1.0000</r>
       <r>  -0.7815  1.0000</r>
       <r>  -0.7815  1.0000</r>
       <r>  -0.7785  1.0000</r>
       <r>  -0.7785  1.0000</r>
       <r>  -0.7784  1.0000</r>
       <r>  -0.7781  1.0000</r>
       <r>  -0.7650  1.0000</r>
       <r>  -0.6590  1.0000</r>
       <r>  -0.6590  1.0000</r>
       <r>  -0.6590  1.0000</r>
       <r>  -0.6590  1.0000</r>
       <r>  -0.6231  1.0000</r>
       <r>  -0.5007  1.0000</r>
       <r>  -0.5002  1.0000</r>
       <r>  -0.5002  1.0000</r>
       <r>  -0.5001  1.0000</r>
       <r>  -0.5001  1.0000</r>
       <r>  -0.4348  1.0000</r>
       <r>  -0.4348  1.0000</r>
       <r>  -0.3727  1.0000</r>
       <r>  -0.3727  1.0000</r>
       <r>  -0.3727  1.0000</r>
       <r>  -0.3726  1.0000</r>
       <r>  -0.3257  1.0000</r>
       <r>  -0.3257  1.0000</r>
       <r>  -0.3159  1.0000</r>
       <r>  -0.3159  1.0000</r>
       <r>  -0.3159  1.0000</r>
       <r>  -0.3159  1.0000</r>
       <r>  -0.2852  1.0000</r>
       <r>  -0.2852  1.0000</r>
       <r>  -0.2852  1.0000</r>
       <r>  -0.2851  1.0000</r>
       <r>  -0.1892  1.0000</r>
       <r>  -0.1892  1.0000</r>
       <r>  -0.1555  1.0000</r>
       <r>  -0.1096  1.0000</r>
       <r>  -0.1095  1.0000</r>
       <r>  -0.0655  1.0000</r>
       <r>  -0.0655  1.0000</r>
       <r>  -0.0655  1.0000</r>
       <r>  -0.0655  1.0000</r>
       <r>  -0.0249  1.0000</r>
       <r>   0.0682  1.0000</r>
       <r>   0.0682  1.0000</r>
       <r>   0.0682  1.0000</r>
       <r>   0.0682  1.0000</r>
       <r>   0.0786  1.0000</r>
       <r>   0.0786  1.0000</r>
       <r>   0.1347  1.0000</r>
       <r>   0.1347  1.0000</r>
       <r>   0.1347  1.0000</r>
       <r>   0.1347  1.0000</r>
       <r>   0.2403  1.0000</r>
       <r>   0.2407  1.0000</r>
       <r>   0.2411  1.0000</r>
       <r>   0.2415  1.0000</r>
       <r>   0.9680  1.0000</r>
       <r>   1.1213  1.0000</r>
       <r>   1.1213  1.0000</r>
       <r>   1.1213  1.0000</r>
       <r>   1.1213  1.0000</r>
       <r>   2.4890  1.0000</r>
       <r>   2.4890  1.0000</r>
       <r>   2.4891  1.0000</r>
       <r>   2.4891  1.0000</r>
       <r>   2.6440  1.0000</r>
       <r>   2.6440  1.0000</r>
       <r>   2.6440  1.0000</r>
       <r>   2.6440  1.0000</r>
       <r>   3.1886  0.0000</r>
       <r>   4.2424  0.0000</r>
       <r>   4.2424  0.0000</r>
       <r>   4.2425  0.0000</r>
       <r>   4.2425  0.0000</r>
       <r>   5.3618  0.0000</r>
       <r>   5.3618  0.0000</r>
       <r>   6.5669  0.0000</r>
       <r>   6.5669  0.0000</r>
       <r>   6.5669  0.0000</r>
       <r>   6.5669  0.0000</r>
       <r>   6.8888  0.0000</r>
       <r>   6.8888  0.0000</r>
       <r>   7.2145  0.0000</r>
       <r>   7.2145  0.0000</r>
       <r>   7.2145  0.0000</r>
       <r>   7.2145  0.0000</r>
       <r>   9.2079  0.0000</r>
       <r>   9.2079  0.0000</r>
       <r>   9.2079  0.0000</r>
       <r>   9.2079  0.0000</r>
       <r>   9.2930  0.0000</r>
       <r>   9.2930  0.0000</r>
       <r>   9.2930  0.0000</r>
       <r>   9.2930  0.0000</r>
       <r>   9.4052  0.0000</r>
       <r>   9.4052  0.0000</r>
       <r>   9.5689  0.0000</r>
       <r>   9.5689  0.0000</r>
       <r>  10.3437  0.0000</r>
       <r>  10.3437  0.0000</r>
       <r>  10.3437  0.0000</r>
       <r>  10.3437  0.0000</r>
       <r>  10.3957  0.0000</r>
       <r>  10.3957  0.0000</r>
       <r>  10.3957  0.0000</r>
       <r>  10.3957  0.0000</r>
      </set>
      <set comment="kpoint 6">
       <r>  -3.9065  1.0000</r>
       <r>  -3.5285  1.0000</r>
       <r>  -2.9175  1.0000</r>
       <r>  -2.8690  1.0000</r>
       <r>  -2.8689  1.0000</r>
       <r>  -2.8392  1.0000</r>
       <r>  -2.8392  1.0000</r>
       <r>  -2.8392  1.0000</r>
       <r>  -2.8391  1.0000</r>
       <r>  -2.8344  1.0000</r>
       <r>  -2.7860  1.0000</r>
       <r>  -2.7628  1.0000</r>
       <r>  -2.7628  1.0000</r>
       <r>  -2.7180  1.0000</r>
       <r>  -2.6971  1.0000</r>
       <r>  -2.6971  1.0000</r>
       <r>  -2.6481  1.0000</r>
       <r>  -2.6481  1.0000</r>
       <r>  -2.6481  1.0000</r>
       <r>  -2.6481  1.0000</r>
       <r>  -2.5726  1.0000</r>
       <r>  -2.5726  1.0000</r>
       <r>  -2.3772  1.0000</r>
       <r>  -2.3772  1.0000</r>
       <r>  -2.3772  1.0000</r>
       <r>  -2.3772  1.0000</r>
       <r>  -2.2454  1.0000</r>
       <r>  -2.2453  1.0000</r>
       <r>  -2.2453  1.0000</r>
       <r>  -2.2453  1.0000</r>
       <r>  -2.2116  1.0000</r>
       <r>  -2.2116  1.0000</r>
       <r>  -2.2116  1.0000</r>
       <r>  -2.2116  1.0000</r>
       <r>  -2.1830  1.0000</r>
       <r>  -2.1830  1.0000</r>
       <r>  -2.1830  1.0000</r>
       <r>  -2.1830  1.0000</r>
       <r>  -2.1682  1.0000</r>
       <r>  -2.1682  1.0000</r>
       <r>  -2.1682  1.0000</r>
       <r>  -2.1681  1.0000</r>
       <r>  -2.1208  1.0000</r>
       <r>  -2.1208  1.0000</r>
       <r>  -2.1208  1.0000</r>
       <r>  -2.1208  1.0000</r>
       <r>  -1.8935  1.0000</r>
       <r>  -1.8723  1.0000</r>
       <r>  -1.8723  1.0000</r>
       <r>  -1.8723  1.0000</r>
       <r>  -1.8722  1.0000</r>
       <r>  -1.8283  1.0000</r>
       <r>  -1.8283  1.0000</r>
       <r>  -1.8282  1.0000</r>
       <r>  -1.8282  1.0000</r>
       <r>  -1.8237  1.0000</r>
       <r>  -1.8229  1.0000</r>
       <r>  -1.8229  1.0000</r>
       <r>  -1.8229  1.0000</r>
       <r>  -1.8187  1.0000</r>
       <r>  -1.8187  1.0000</r>
       <r>  -1.8187  1.0000</r>
       <r>  -1.8180  1.0000</r>
       <r>  -1.7586  1.0000</r>
       <r>  -1.7297  1.0000</r>
       <r>  -1.7297  1.0000</r>
       <r>  -1.7297  1.0000</r>
       <r>  -1.7297  1.0000</r>
       <r>  -1.6836  1.0000</r>
       <r>  -1.6836  1.0000</r>
       <r>  -1.6835  1.0000</r>
       <r>  -1.6835  1.0000</r>
       <r>  -1.5931  1.0000</r>
       <r>  -1.5931  1.0000</r>
       <r>  -1.5931  1.0000</r>
       <r>  -1.5931  1.0000</r>
       <r>  -1.4723  1.0000</r>
       <r>  -1.4723  1.0000</r>
       <r>  -1.4723  1.0000</r>
       <r>  -1.4722  1.0000</r>
       <r>  -1.4541  1.0000</r>
       <r>  -1.4541  1.0000</r>
       <r>  -1.4277  1.0000</r>
       <r>  -1.4277  1.0000</r>
       <r>  -1.4277  1.0000</r>
       <r>  -1.4277  1.0000</r>
       <r>  -1.3387  1.0000</r>
       <r>  -1.3387  1.0000</r>
       <r>  -1.3387  1.0000</r>
       <r>  -1.3387  1.0000</r>
       <r>  -1.3142  1.0000</r>
       <r>  -1.3142  1.0000</r>
       <r>  -0.9144  1.0000</r>
       <r>  -0.8191  1.0000</r>
       <r>  -0.8190  1.0000</r>
       <r>  -0.8190  1.0000</r>
       <r>  -0.8189  1.0000</r>
       <r>  -0.8141  1.0000</r>
       <r>  -0.8141  1.0000</r>
       <r>  -0.8134  1.0000</r>
       <r>  -0.8132  1.0000</r>
       <r>  -0.8130  1.0000</r>
       <r>  -0.8129  1.0000</r>
       <r>  -0.8129  1.0000</r>
       <r>  -0.8058  1.0000</r>
       <r>  -0.8057  1.0000</r>
       <r>  -0.8056  1.0000</r>
       <r>  -0.8056  1.0000</r>
       <r>  -0.7315  1.0000</r>
       <r>  -0.7315  1.0000</r>
       <r>  -0.7315  1.0000</r>
       <r>  -0.7315  1.0000</r>
       <r>  -0.6986  1.0000</r>
       <r>  -0.6986  1.0000</r>
       <r>  -0.6986  1.0000</r>
       <r>  -0.6985  1.0000</r>
       <r>  -0.6731  1.0000</r>
       <r>  -0.6731  1.0000</r>
       <r>  -0.6731  1.0000</r>
       <r>  -0.6731  1.0000</r>
       <r>  -0.5990  1.0000</r>
       <r>  -0.5548  1.0000</r>
       <r>  -0.5548  1.0000</r>
       <r>  -0.5548  1.0000</r>
       <r>  -0.5548  1.0000</r>
       <r>  -0.5373  1.0000</r>
       <r>  -0.4496  1.0000</r>
       <r>  -0.4496  1.0000</r>
       <r>  -0.4496  1.0000</r>
       <r>  -0.4496  1.0000</r>
       <r>  -0.3860  1.0000</r>
       <r>  -0.3860  1.0000</r>
       <r>  -0.3468  1.0000</r>
       <r>  -0.3468  1.0000</r>
       <r>  -0.2846  1.0000</r>
       <r>  -0.2845  1.0000</r>
       <r>  -0.2845  1.0000</r>
       <r>  -0.2845  1.0000</r>
       <r>  -0.2145  1.0000</r>
       <r>  -0.2145  1.0000</r>
       <r>  -0.2145  1.0000</r>
       <r>  -0.2145  1.0000</r>
       <r>  -0.2108  1.0000</r>
       <r>  -0.2108  1.0000</r>
       <r>  -0.1796  1.0000</r>
       <r>  -0.1796  1.0000</r>
       <r>  -0.1287  1.0000</r>
       <r>  -0.1286  1.0000</r>
       <r>  -0.1286  1.0000</r>
       <r>  -0.1286  1.0000</r>
       <r>  -0.1169  1.0000</r>
       <r>  -0.0510  1.0000</r>
       <r>  -0.0180  1.0000</r>
       <r>  -0.0180  1.0000</r>
       <r>  -0.0180  1.0000</r>
       <r>  -0.0180  1.0000</r>
       <r>  -0.0058  1.0000</r>
       <r>  -0.0058  1.0000</r>
       <r>   0.2403  1.0000</r>
       <r>   0.2408  1.0000</r>
       <r>   0.2410  1.0000</r>
       <r>   0.2415  1.0000</r>
       <r>   0.3573  1.0000</r>
       <r>   0.3573  1.0000</r>
       <r>   0.3573  1.0000</r>
       <r>   0.3573  1.0000</r>
       <r>   0.8496  1.0000</r>
       <r>   0.8496  1.0000</r>
       <r>   0.8496  1.0000</r>
       <r>   0.8496  1.0000</r>
       <r>   1.4941  1.0000</r>
       <r>   2.5184  1.0000</r>
       <r>   2.5185  1.0000</r>
       <r>   2.5185  1.0000</r>
       <r>   2.5185  1.0000</r>
       <r>   2.5970  1.0000</r>
       <r>   2.5971  1.0000</r>
       <r>   2.5971  1.0000</r>
       <r>   2.5971  1.0000</r>
       <r>   2.6180  1.0000</r>
[...]
       <r>  -0.9358  1.0000</r>
       <r>  -0.9358  1.0000</r>
       <r>  -0.9356  1.0000</r>
       <r>  -0.9356  1.0000</r>
       <r>  -0.9356  1.0000</r>
       <r>  -0.9355  1.0000</r>
       <r>  -0.9353  1.0000</r>
       <r>  -0.9353  1.0000</r>
       <r>  -0.7118  1.0000</r>
       <r>  -0.7116  1.0000</r>
       <r>  -0.7116  1.0000</r>
       <r>  -0.7116  1.0000</r>
       <r>  -0.6692  1.0000</r>
       <r>  -0.6692  1.0000</r>
       <r>  -0.6692  1.0000</r>
       <r>  -0.6692  1.0000</r>
       <r>  -0.6545  1.0000</r>
       <r>  -0.6545  1.0000</r>
       <r>  -0.6541  1.0000</r>
       <r>  -0.6541  1.0000</r>
       <r>  -0.6541  1.0000</r>
       <r>  -0.6540  1.0000</r>
       <r>  -0.6537  1.0000</r>
       <r>  -0.6537  1.0000</r>
       <r>  -0.4921  1.0000</r>
       <r>  -0.4921  1.0000</r>
       <r>  -0.4921  1.0000</r>
       <r>  -0.4921  1.0000</r>
       <r>  -0.4232  1.0000</r>
       <r>  -0.4232  1.0000</r>
       <r>  -0.4232  1.0000</r>
       <r>  -0.4232  1.0000</r>
       <r>  -0.3801  1.0000</r>
       <r>  -0.3801  1.0000</r>
       <r>  -0.3801  1.0000</r>
       <r>  -0.3801  1.0000</r>
       <r>   0.0650  1.0000</r>
       <r>   0.0650  1.0000</r>
       <r>   0.0651  1.0000</r>
       <r>   0.0651  1.0000</r>
       <r>   0.0651  1.0000</r>
       <r>   0.0651  1.0000</r>
       <r>   0.0653  1.0000</r>
       <r>   0.0653  1.0000</r>
       <r>   0.0761  1.0000</r>
       <r>   0.0761  1.0000</r>
       <r>   0.0761  1.0000</r>
       <r>   0.0761  1.0000</r>
       <r>   0.0890  1.0000</r>
       <r>   0.0890  1.0000</r>
       <r>   0.0890  1.0000</r>
       <r>   0.0890  1.0000</r>
       <r>   0.0927  1.0000</r>
       <r>   0.0927  1.0000</r>
       <r>   0.0928  1.0000</r>
       <r>   0.0928  1.0000</r>
       <r>   0.0929  1.0000</r>
       <r>   0.0929  1.0000</r>
       <r>   0.0930  1.0000</r>
       <r>   0.0930  1.0000</r>
       <r>   2.8093  1.0000</r>
       <r>   2.8093  1.0000</r>
       <r>   2.8093  1.0000</r>
       <r>   2.8093  1.0000</r>
       <r>   3.5804  0.0000</r>
       <r>   3.5804  0.0000</r>
       <r>   3.5807  0.0000</r>
       <r>   3.5807  0.0000</r>
       <r>   3.5807  0.0000</r>
       <r>   3.5807  0.0000</r>
       <r>   3.5810  0.0000</r>
       <r>   3.5810  0.0000</r>
       <r>   4.4658  0.0000</r>
       <r>   4.4658  0.0000</r>
       <r>   4.4666  0.0000</r>
       <r>   4.4666  0.0000</r>
       <r>   4.4666  0.0000</r>
       <r>   4.4666  0.0000</r>
       <r>   4.4673  0.0000</r>
       <r>   4.4673  0.0000</r>
       <r>   5.2327  0.0000</r>
       <r>   5.2327  0.0000</r>
       <r>   5.2327  0.0000</r>
       <r>   5.2328  0.0000</r>
       <r>   7.9185  0.0000</r>
       <r>   7.9185  0.0000</r>
       <r>   7.9191  0.0000</r>
       <r>   7.9191  0.0000</r>
       <r>   7.9191  0.0000</r>
       <r>   7.9191  0.0000</r>
       <r>   7.9196  0.0000</r>
       <r>   7.9196  0.0000</r>
       <r>   8.4797  0.0000</r>
       <r>   8.4797  0.0000</r>
       <r>   8.4797  0.0000</r>
       <r>   8.4797  0.0000</r>
       <r>   9.4830  0.0000</r>
       <r>   9.4830  0.0000</r>
       <r>   9.4830  0.0000</r>
       <r>   9.4830  0.0000</r>
       <r>  10.0430  0.0000</r>
       <r>  10.0430  0.0000</r>
       <r>  10.0433  0.0000</r>
       <r>  10.0433  0.0000</r>
       <r>  10.0433  0.0000</r>
       <r>  10.0433  0.0000</r>
       <r>  10.0437  0.0000</r>
       <r>  10.0437  0.0000</r>
      </set>
      <set comment="kpoint 195">
       <r>  -3.0771  1.0000</r>
       <r>  -3.0770  1.0000</r>
       <r>  -3.0770  1.0000</r>
       <r>  -3.0770  1.0000</r>
       <r>  -2.9704  1.0000</r>
       <r>  -2.9704  1.0000</r>
       <r>  -2.9704  1.0000</r>
       <r>  -2.9704  1.0000</r>
       <r>  -2.6305  1.0000</r>
       <r>  -2.6304  1.0000</r>
       <r>  -2.6304  1.0000</r>
       <r>  -2.6302  1.0000</r>
       <r>  -2.6300  1.0000</r>
       <r>  -2.6300  1.0000</r>
       <r>  -2.6300  1.0000</r>
       <r>  -2.6300  1.0000</r>
       <r>  -2.6280  1.0000</r>
       <r>  -2.6278  1.0000</r>
       <r>  -2.6278  1.0000</r>
       <r>  -2.6277  1.0000</r>
       <r>  -2.6068  1.0000</r>
       <r>  -2.6068  1.0000</r>
       <r>  -2.6068  1.0000</r>
       <r>  -2.6068  1.0000</r>
       <r>  -2.5897  1.0000</r>
       <r>  -2.5897  1.0000</r>
       <r>  -2.5894  1.0000</r>
       <r>  -2.5894  1.0000</r>
       <r>  -2.5894  1.0000</r>
       <r>  -2.5893  1.0000</r>
       <r>  -2.5890  1.0000</r>
       <r>  -2.5890  1.0000</r>
       <r>  -2.1743  1.0000</r>
       <r>  -2.1743  1.0000</r>
       <r>  -2.1739  1.0000</r>
       <r>  -2.1739  1.0000</r>
       <r>  -2.1739  1.0000</r>
       <r>  -2.1739  1.0000</r>
       <r>  -2.1734  1.0000</r>
       <r>  -2.1734  1.0000</r>
       <r>  -2.1567  1.0000</r>
       <r>  -2.1566  1.0000</r>
       <r>  -2.1566  1.0000</r>
       <r>  -2.1566  1.0000</r>
       <r>  -2.0239  1.0000</r>
       <r>  -2.0239  1.0000</r>
       <r>  -2.0235  1.0000</r>
       <r>  -2.0235  1.0000</r>
       <r>  -2.0235  1.0000</r>
       <r>  -2.0234  1.0000</r>
       <r>  -2.0231  1.0000</r>
       <r>  -2.0231  1.0000</r>
       <r>  -2.0183  1.0000</r>
       <r>  -2.0183  1.0000</r>
       <r>  -2.0182  1.0000</r>
       <r>  -2.0182  1.0000</r>
       <r>  -1.4857  1.0000</r>
       <r>  -1.4857  1.0000</r>
       <r>  -1.4857  1.0000</r>
       <r>  -1.4857  1.0000</r>
       <r>  -1.4369  1.0000</r>
       <r>  -1.4369  1.0000</r>
       <r>  -1.4369  1.0000</r>
       <r>  -1.4368  1.0000</r>
       <r>  -1.4216  1.0000</r>
       <r>  -1.4215  1.0000</r>
       <r>  -1.4215  1.0000</r>
       <r>  -1.4215  1.0000</r>
       <r>  -1.4099  1.0000</r>
       <r>  -1.4099  1.0000</r>
       <r>  -1.4099  1.0000</r>
       <r>  -1.4099  1.0000</r>
       <r>  -1.3901  1.0000</r>
       <r>  -1.3901  1.0000</r>
       <r>  -1.3901  1.0000</r>
       <r>  -1.3901  1.0000</r>
       <r>  -1.2080  1.0000</r>
       <r>  -1.2079  1.0000</r>
       <r>  -1.2078  1.0000</r>
       <r>  -1.2078  1.0000</r>
       <r>  -1.1970  1.0000</r>
       <r>  -1.1970  1.0000</r>
       <r>  -1.1958  1.0000</r>
       <r>  -1.1957  1.0000</r>
       <r>  -1.1957  1.0000</r>
       <r>  -1.1956  1.0000</r>
       <r>  -1.1953  1.0000</r>
       <r>  -1.1953  1.0000</r>
       <r>  -1.1949  1.0000</r>
       <r>  -1.1947  1.0000</r>
       <r>  -1.1941  1.0000</r>
       <r>  -1.1941  1.0000</r>
       <r>  -1.0985  1.0000</r>
       <r>  -1.0985  1.0000</r>
       <r>  -1.0977  1.0000</r>
       <r>  -1.0976  1.0000</r>
       <r>  -1.0976  1.0000</r>
       <r>  -1.0975  1.0000</r>
       <r>  -1.0968  1.0000</r>
       <r>  -1.0968  1.0000</r>
       <r>  -1.0891  1.0000</r>
       <r>  -1.0890  1.0000</r>
       <r>  -1.0890  1.0000</r>
       <r>  -1.0890  1.0000</r>
       <r>  -0.9261  1.0000</r>
       <r>  -0.9261  1.0000</r>
       <r>  -0.9261  1.0000</r>
       <r>  -0.9261  1.0000</r>
       <r>  -0.8962  1.0000</r>
       <r>  -0.8962  1.0000</r>
       <r>  -0.8958  1.0000</r>
       <r>  -0.8958  1.0000</r>
       <r>  -0.8958  1.0000</r>
       <r>  -0.8958  1.0000</r>
       <r>  -0.8954  1.0000</r>
       <r>  -0.8954  1.0000</r>
       <r>  -0.7597  1.0000</r>
       <r>  -0.7597  1.0000</r>
       <r>  -0.7594  1.0000</r>
       <r>  -0.7593  1.0000</r>
       <r>  -0.7593  1.0000</r>
       <r>  -0.7592  1.0000</r>
       <r>  -0.7588  1.0000</r>
       <r>  -0.7588  1.0000</r>
       <r>  -0.7535  1.0000</r>
       <r>  -0.7535  1.0000</r>
       <r>  -0.7535  1.0000</r>
       <r>  -0.7534  1.0000</r>
       <r>  -0.6330  1.0000</r>
       <r>  -0.6330  1.0000</r>
       <r>  -0.6330  1.0000</r>
       <r>  -0.6330  1.0000</r>
       <r>  -0.5314  1.0000</r>
       <r>  -0.5311  1.0000</r>
       <r>  -0.5311  1.0000</r>
       <r>  -0.5311  1.0000</r>
       <r>  -0.5270  1.0000</r>
       <r>  -0.5270  1.0000</r>
       <r>  -0.5270  1.0000</r>
       <r>  -0.5267  1.0000</r>
       <r>  -0.4649  1.0000</r>
       <r>  -0.4649  1.0000</r>
       <r>  -0.4649  1.0000</r>
       <r>  -0.4649  1.0000</r>
       <r>   0.0891  1.0000</r>
       <r>   0.0891  1.0000</r>
       <r>   0.0892  1.0000</r>
       <r>   0.0892  1.0000</r>
       <r>   0.0892  1.0000</r>
       <r>   0.0892  1.0000</r>
       <r>   0.0893  1.0000</r>
       <r>   0.0893  1.0000</r>
       <r>   0.0952  1.0000</r>
       <r>   0.0952  1.0000</r>
       <r>   0.0952  1.0000</r>
       <r>   0.0952  1.0000</r>
       <r>   0.1027  1.0000</r>
       <r>   0.1027  1.0000</r>
       <r>   0.1027  1.0000</r>
       <r>   0.1028  1.0000</r>
       <r>   0.1069  1.0000</r>
       <r>   0.1069  1.0000</r>
       <r>   0.1069  1.0000</r>
       <r>   0.1069  1.0000</r>
       <r>   0.1069  1.0000</r>
       <r>   0.1069  1.0000</r>
       <r>   0.1070  1.0000</r>
       <r>   0.1070  1.0000</r>
       <r>   3.3811  0.0000</r>
       <r>   3.3811  0.0000</r>
       <r>   3.3811  0.0000</r>
       <r>   3.3811  0.0000</r>
       <r>   3.7654  0.0000</r>
       <r>   3.7654  0.0000</r>
       <r>   3.7658  0.0000</r>
       <r>   3.7658  0.0000</r>
       <r>   3.7658  0.0000</r>
       <r>   3.7658  0.0000</r>
       <r>   3.7662  0.0000</r>
       <r>   3.7662  0.0000</r>
       <r>   4.2142  0.0000</r>
       <r>   4.2142  0.0000</r>
       <r>   4.2148  0.0000</r>
       <r>   4.2148  0.0000</r>
       <r>   4.2148  0.0000</r>
       <r>   4.2148  0.0000</r>
       <r>   4.2154  0.0000</r>
       <r>   4.2154  0.0000</r>
       <r>   4.5987  0.0000</r>
       <r>   4.5987  0.0000</r>
       <r>   4.5987  0.0000</r>
       <r>   4.5987  0.0000</r>
       <r>   8.3965  0.0000</r>
       <r>   8.3965  0.0000</r>
       <r>   8.3969  0.0000</r>
       <r>   8.3969  0.0000</r>
       <r>   8.3970  0.0000</r>
       <r>   8.3970  0.0000</r>
       <r>   8.3974  0.0000</r>
       <r>   8.3974  0.0000</r>
       <r>   8.6777  0.0000</r>
       <r>   8.6777  0.0000</r>
       <r>   8.6777  0.0000</r>
       <r>   8.6777  0.0000</r>
       <r>   9.1823  0.0000</r>
       <r>   9.1823  0.0000</r>
       <r>   9.1823  0.0000</r>
       <r>   9.1823  0.0000</r>
       <r>   9.4624  0.0000</r>
       <r>   9.4624  0.0000</r>
       <r>   9.4627  0.0000</r>
       <r>   9.4628  0.0000</r>
       <r>   9.4628  0.0000</r>
       <r>   9.4628  0.0000</r>
       <r>   9.4631  0.0000</r>
       <r>   9.4631  0.0000</r>
      </set>
      <set comment="kpoint 196">
       <r>  -3.0276  1.0000</r>
       <r>  -3.0261  1.0000</r>
       <r>  -3.0261  1.0000</r>
       <r>  -3.0261  1.0000</r>
       <r>  -3.0251  1.0000</r>
       <r>  -3.0251  1.0000</r>
       <r>  -3.0251  1.0000</r>
       <r>  -3.0236  1.0000</r>
       <r>  -2.6171  1.0000</r>
       <r>  -2.6166  1.0000</r>
       <r>  -2.6166  1.0000</r>
       <r>  -2.6165  1.0000</r>
       <r>  -2.6154  1.0000</r>
       <r>  -2.6150  1.0000</r>
       <r>  -2.6148  1.0000</r>
       <r>  -2.6148  1.0000</r>
       <r>  -2.6148  1.0000</r>
       <r>  -2.6147  1.0000</r>
       <r>  -2.6147  1.0000</r>
       <r>  -2.6147  1.0000</r>
       <r>  -2.6146  1.0000</r>
       <r>  -2.6145  1.0000</r>
       <r>  -2.6145  1.0000</r>
       <r>  -2.6144  1.0000</r>
       <r>  -2.6144  1.0000</r>
       <r>  -2.6144  1.0000</r>
       <r>  -2.6143  1.0000</r>
       <r>  -2.6139  1.0000</r>
       <r>  -2.6129  1.0000</r>
       <r>  -2.6128  1.0000</r>
       <r>  -2.6128  1.0000</r>
       <r>  -2.6122  1.0000</r>
       <r>  -2.0974  1.0000</r>
       <r>  -2.0942  1.0000</r>
       <r>  -2.0942  1.0000</r>
       <r>  -2.0940  1.0000</r>
       <r>  -2.0940  1.0000</r>
       <r>  -2.0934  1.0000</r>
       <r>  -2.0932  1.0000</r>
       <r>  -2.0932  1.0000</r>
       <r>  -2.0930  1.0000</r>
       <r>  -2.0930  1.0000</r>
       <r>  -2.0930  1.0000</r>
       <r>  -2.0930  1.0000</r>
       <r>  -2.0929  1.0000</r>
       <r>  -2.0929  1.0000</r>
       <r>  -2.0929  1.0000</r>
       <r>  -2.0928  1.0000</r>
       <r>  -2.0927  1.0000</r>
       <r>  -2.0927  1.0000</r>
       <r>  -2.0924  1.0000</r>
       <r>  -2.0919  1.0000</r>
       <r>  -2.0919  1.0000</r>
       <r>  -2.0917  1.0000</r>
       <r>  -2.0917  1.0000</r>
       <r>  -2.0885  1.0000</r>
       <r>  -1.4212  1.0000</r>
       <r>  -1.4212  1.0000</r>
       <r>  -1.4209  1.0000</r>
       <r>  -1.4207  1.0000</r>
       <r>  -1.4203  1.0000</r>
       <r>  -1.4202  1.0000</r>
       <r>  -1.4201  1.0000</r>
       <r>  -1.4201  1.0000</r>
       <r>  -1.4199  1.0000</r>
       <r>  -1.4199  1.0000</r>
       <r>  -1.4198  1.0000</r>
       <r>  -1.4198  1.0000</r>
       <r>  -1.4193  1.0000</r>
       <r>  -1.4192  1.0000</r>
       <r>  -1.4189  1.0000</r>
       <r>  -1.4189  1.0000</r>
       <r>  -1.3338  1.0000</r>
       <r>  -1.3338  1.0000</r>
       <r>  -1.3324  1.0000</r>
       <r>  -1.3324  1.0000</r>
       <r>  -1.3324  1.0000</r>
       <r>  -1.3324  1.0000</r>
       <r>  -1.3310  1.0000</r>
       <r>  -1.3310  1.0000</r>
       <r>  -1.1457  1.0000</r>
       <r>  -1.1457  1.0000</r>
       <r>  -1.1445  1.0000</r>
       <r>  -1.1442  1.0000</r>
       <r>  -1.1431  1.0000</r>
       <r>  -1.1428  1.0000</r>
       <r>  -1.1428  1.0000</r>
       <r>  -1.1428  1.0000</r>
       <r>  -1.1428  1.0000</r>
       <r>  -1.1428  1.0000</r>
       <r>  -1.1427  1.0000</r>
       <r>  -1.1427  1.0000</r>
       <r>  -1.1427  1.0000</r>
       <r>  -1.1427  1.0000</r>
       <r>  -1.1426  1.0000</r>
       <r>  -1.1425  1.0000</r>
       <r>  -1.1425  1.0000</r>
       <r>  -1.1425  1.0000</r>
       <r>  -1.1425  1.0000</r>
       <r>  -1.1423  1.0000</r>
       <r>  -1.1411  1.0000</r>
       <r>  -1.1408  1.0000</r>
       <r>  -1.1397  1.0000</r>
       <r>  -1.1397  1.0000</r>
       <r>  -0.8435  1.0000</r>
       <r>  -0.8424  1.0000</r>
       <r>  -0.8424  1.0000</r>
       <r>  -0.8407  1.0000</r>
       <r>  -0.8406  1.0000</r>
       <r>  -0.8405  1.0000</r>
       <r>  -0.8405  1.0000</r>
       <r>  -0.8403  1.0000</r>
       <r>  -0.8402  1.0000</r>
       <r>  -0.8402  1.0000</r>
       <r>  -0.8402  1.0000</r>
       <r>  -0.8401  1.0000</r>
       <r>  -0.8401  1.0000</r>
       <r>  -0.8401  1.0000</r>
       <r>  -0.8401  1.0000</r>
       <r>  -0.8400  1.0000</r>
       <r>  -0.8399  1.0000</r>
       <r>  -0.8397  1.0000</r>
       <r>  -0.8397  1.0000</r>
       <r>  -0.8397  1.0000</r>
       <r>  -0.8395  1.0000</r>
       <r>  -0.8378  1.0000</r>
       <r>  -0.8378  1.0000</r>
       <r>  -0.8368  1.0000</r>
       <r>  -0.5522  1.0000</r>
       <r>  -0.5511  1.0000</r>
       <r>  -0.5510  1.0000</r>
       <r>  -0.5510  1.0000</r>
       <r>  -0.5502  1.0000</r>
       <r>  -0.5502  1.0000</r>
       <r>  -0.5501  1.0000</r>
       <r>  -0.5500  1.0000</r>
       <r>  -0.5499  1.0000</r>
       <r>  -0.5498  1.0000</r>
       <r>  -0.5497  1.0000</r>
       <r>  -0.5497  1.0000</r>
       <r>  -0.5488  1.0000</r>
       <r>  -0.5488  1.0000</r>
       <r>  -0.5488  1.0000</r>
       <r>  -0.5476  1.0000</r>
       <r>   0.1039  1.0000</r>
       <r>   0.1039  1.0000</r>
       <r>   0.1041  1.0000</r>
       <r>   0.1043  1.0000</r>
       <r>   0.1043  1.0000</r>
       <r>   0.1043  1.0000</r>
       <r>   0.1043  1.0000</r>
       <r>   0.1043  1.0000</r>
       <r>   0.1044  1.0000</r>
       <r>   0.1045  1.0000</r>
       <r>   0.1045  1.0000</r>
       <r>   0.1045  1.0000</r>
       <r>   0.1046  1.0000</r>
       <r>   0.1047  1.0000</r>
       <r>   0.1047  1.0000</r>
       <r>   0.1048  1.0000</r>
       <r>   0.1048  1.0000</r>
       <r>   0.1049  1.0000</r>
       <r>   0.1049  1.0000</r>
       <r>   0.1049  1.0000</r>
       <r>   0.1049  1.0000</r>
       <r>   0.1051  1.0000</r>
       <r>   0.1053  1.0000</r>
       <r>   0.1053  1.0000</r>
       <r>   3.9740  0.0000</r>
       <r>   3.9760  0.0000</r>
       <r>   3.9760  0.0000</r>
       <r>   3.9784  0.0000</r>
       <r>   3.9787  0.0000</r>
       <r>   3.9788  0.0000</r>
       <r>   3.9788  0.0000</r>
       <r>   3.9789  0.0000</r>
       <r>   3.9789  0.0000</r>
       <r>   3.9789  0.0000</r>
       <r>   3.9789  0.0000</r>
       <r>   3.9790  0.0000</r>
       <r>   3.9792  0.0000</r>
       <r>   3.9792  0.0000</r>
       <r>   3.9792  0.0000</r>
       <r>   3.9792  0.0000</r>
       <r>   3.9792  0.0000</r>
       <r>   3.9794  0.0000</r>
       <r>   3.9794  0.0000</r>
       <r>   3.9795  0.0000</r>
       <r>   3.9798  0.0000</r>
       <r>   3.9821  0.0000</r>
       <r>   3.9821  0.0000</r>
       <r>   3.9842  0.0000</r>
       <r>   8.9079  0.0000</r>
       <r>   8.9079  0.0000</r>
       <r>   8.9096  0.0000</r>
       <r>   8.9117  0.0000</r>
       <r>   8.9119  0.0000</r>
       <r>   8.9124  0.0000</r>
       <r>   8.9124  0.0000</r>
       <r>   8.9127  0.0000</r>
       <r>   8.9128  0.0000</r>
       <r>   8.9128  0.0000</r>
       <r>   8.9128  0.0000</r>
       <r>   8.9128  0.0000</r>
       <r>   8.9129  0.0000</r>
       <r>   8.9130  0.0000</r>
       <r>   8.9130  0.0000</r>
       <r>   8.9130  0.0000</r>
       <r>   8.9131  0.0000</r>
       <r>   8.9134  0.0000</r>
       <r>   8.9134  0.0000</r>
       <r>   8.9139  0.0000</r>
       <r>   8.9141  0.0000</r>
       <r>   8.9162  0.0000</r>
       <r>   8.9179  0.0000</r>
       <r>   8.9179  0.0000</r>
      </set>
     </set>
    </set>
   </array>
  </eigenvalues>
 </calculation>
 <structure name="finalpos" >
  <crystal>
   <varray name="basis" >
    <v>       8.32644956      0.00000000      0.00000000</v>
    <v>       0.00000000      8.32644956      0.00000000</v>
    <v>       0.00000000      0.00000000      8.32644956</v>
   </varray>
   <i name="volume">    577.27076926</i>
   <varray name="rec_basis" >
    <v>       0.12009921      0.00000000      0.00000000</v>
    <v>       0.00000000      0.12009921      0.00000000</v>
    <v>       0.00000000      0.00000000      0.12009921</v>
   </varray>
  </crystal>
  <varray name="positions" >
   <v>       0.00120099      0.00000000      0.00000000</v>
   <v>       0.50000000      0.00000000      0.00000000</v>
   <v>       0.00000000      0.50000000      0.00000000</v>
   <v>       0.50000000      0.50000000      0.00000000</v>
   <v>       0.00000000      0.00000000      0.50000000</v>
   <v>       0.50000000      0.00000000      0.50000000</v>
   <v>       0.00000000      0.50000000      0.50000000</v>
   <v>       0.50000000      0.50000000      0.50000000</v>
   <v>       0.25000000      0.25000000      0.00000000</v>
   <v>       0.75000000      0.25000000      0.00000000</v>
   <v>       0.25000000      0.75000000      0.00000000</v>
   <v>       0.75000000      0.75000000      0.00000000</v>
   <v>       0.25000000      0.25000000      0.50000000</v>
   <v>       0.75000000      0.25000000      0.50000000</v>
   <v>       0.25000000      0.75000000      0.50000000</v>
   <v>       0.75000000      0.75000000      0.50000000</v>
   <v>       0.25000000      0.00000000      0.25000000</v>
   <v>       0.75000000      0.00000000      0.25000000</v>
   <v>       0.25000000      0.50000000      0.25000000</v>
   <v>       0.75000000      0.50000000      0.25000000</v>
   <v>       0.25000000      0.00000000      0.75000000</v>
   <v>       0.75000000      0.00000000      0.75000000</v>
   <v>       0.25000000      0.50000000      0.75000000</v>
   <v>       0.75000000      0.50000000      0.75000000</v>
   <v>       0.00000000      0.25000000      0.25000000</v>
   <v>       0.50000000      0.25000000      0.25000000</v>
   <v>       0.00000000      0.75000000      0.25000000</v>
   <v>       0.50000000      0.75000000      0.25000000</v>
   <v>       0.00000000      0.25000000      0.75000000</v>
   <v>       0.50000000      0.25000000      0.75000000</v>
   <v>       0.00000000      0.75000000      0.75000000</v>
   <v>       0.50000000      0.75000000      0.75000000</v>
  </varray>
 </structure>
</modeling>
