 running on    4 nodes
 distr:  one band on    1 nodes,    4 groups
 vasp.4.6.28 25Jul05 complex 
 POSCAR found :  1 types and   32 ions

 ----------------------------------------------------------------------------- 
|                                                                             |
|  ADVICE TO THIS USER RUNNING 'VASP/VAMP'   (HEAR YOUR MASTER'S VOICE ...):  |
|                                                                             |
|      You have a (more or less) 'large supercell' and for larger cells       |
|      it might be more efficient to use real space projection operators      |
|      So try LREAL= Auto  in the INCAR   file.                               |
|      Mind: If you want to do an extremely accurate calculations keep the    |
|      reciprocal projection scheme          (i.e. LREAL=.FALSE.)             |
|                                                                             |
 ----------------------------------------------------------------------------- 

 LDA part: xc-table for Pade appr. of Perdew
 POSCAR, INCAR and KPOINTS ok, starting setup
 WARNING: wrap around errors must be expected
 FFT: planning ...           1
 reading WAVECAR
 entering main loop
       N       E                     dE             d eps       ncg     rms          rms(c)
DAV:   1     0.402371321293E+04    0.40237E+04   -0.18774E+05 83112   0.332E+03
DAV:   2     0.473735567901E+03   -0.35500E+04   -0.34193E+04 83104   0.722E+02
DAV:   3    -0.106869544585E+03   -0.58061E+03   -0.53545E+03 83104   0.271E+02
DAV:   4    -0.146405459352E+03   -0.39536E+02   -0.38186E+02 86644   0.819E+01
DAV:   5    -0.146881084634E+03   -0.47563E+00   -0.47392E+00 88308   0.927E+00    0.396E+01
DAV:   6    -0.128336526333E+03    0.18545E+02   -0.27062E+02 89168   0.948E+01    0.169E+01
DAV:   7    -0.119186081719E+03    0.91504E+01   -0.45803E+01 92356   0.395E+01    0.310E+00
DAV:   8    -0.118905025167E+03    0.28106E+00   -0.60398E-01 85760   0.272E+00    0.203E+00
DAV:   9    -0.118829091954E+03    0.75933E-01   -0.10501E-01 93192   0.245E+00    0.605E-01
DAV:  10    -0.118824745987E+03    0.43460E-02   -0.48577E-02 95040   0.155E+00    0.119E-01
DAV:  11    -0.118825095920E+03   -0.34993E-03   -0.44853E-03 87664   0.410E-01    0.635E-02
DAV:  12    -0.118825008069E+03    0.87851E-04   -0.37042E-04 91272   0.231E-01    0.306E-02
DAV:  13    -0.118825004596E+03    0.34733E-05   -0.75545E-05 91128   0.883E-02    0.148E-02
DAV:  14    -0.118825013522E+03   -0.89267E-05   -0.28871E-05 90728   0.305E-02    0.812E-03
DAV:  15    -0.118825012633E+03    0.88879E-06   -0.54283E-06 85600   0.198E-02    0.622E-03
DAV:  16    -0.118825009017E+03    0.36161E-05   -0.37207E-06 94116   0.128E-02    0.264E-03
DAV:  17    -0.118825015854E+03   -0.68364E-05   -0.10402E-06 92252   0.107E-02    0.164E-03
DAV:  18    -0.118825016237E+03   -0.38311E-06   -0.16191E-07 89540   0.538E-03    0.123E-03
DAV:  19    -0.118825016172E+03    0.64967E-07   -0.23578E-07 85704   0.407E-03    0.565E-04
DAV:  20    -0.118825016167E+03    0.50350E-08   -0.43762E-08 73368   0.198E-03
   1 F= -.11882502E+03 E0= -.11882471E+03  d E =-.606984E-03
