  32  32   0   0
  0.1166450E+02  0.7200103E-09  0.7200103E-09  0.7200103E-09  0.5000000E-15
  1.000000000000000E-004
  CAR 
 unknown system                          
     14.06122088     -6.47782354  301      3.91225882      1.00000000
     -6.478  0.0000E+00  0.0000E+00
     -6.409  0.0000E+00  0.0000E+00
     -6.341  0.0000E+00  0.0000E+00
     -6.272  0.0000E+00  0.0000E+00
     -6.204  0.0000E+00  0.0000E+00
     -6.136  0.0000E+00  0.0000E+00
     -6.067  0.0000E+00  0.0000E+00
     -5.999  0.0000E+00  0.0000E+00
     -5.930  0.0000E+00  0.0000E+00
     -5.862  0.0000E+00  0.0000E+00
     -5.793  0.0000E+00  0.0000E+00
     -5.725  0.0000E+00  0.0000E+00
     -5.656  0.0000E+00  0.0000E+00
     -5.588  0.6095E-11  0.4173E-12
     -5.519  0.8845E-01  0.6056E-02
     -5.451  0.4694E+00  0.3819E-01
     -5.382  0.8358E+00  0.9541E-01
     -5.314  0.1218E+01  0.1788E+00
     -5.245  0.1309E+01  0.2686E+00
     -5.177  0.1124E+01  0.3455E+00
     -5.109  0.1616E+01  0.4562E+00
     -5.040  0.1272E+01  0.5443E+00
     -4.972  0.2352E+01  0.7053E+00
     -4.903  0.2126E+01  0.8508E+00
     -4.835  0.1318E+01  0.9411E+00
     -4.766  0.2138E+01  0.1088E+01
     -4.698  0.1844E+01  0.1214E+01
     -4.629  0.2893E+01  0.1412E+01
     -4.561  0.2313E+01  0.1571E+01
     -4.492  0.2495E+01  0.1742E+01
     -4.424  0.3170E+01  0.1961E+01
     -4.355  0.2379E+01  0.2124E+01
     -4.287  0.2186E+01  0.2274E+01
     -4.219  0.2459E+01  0.2442E+01
     -4.150  0.3896E+01  0.2709E+01
     -4.082  0.2992E+01  0.2914E+01
     -4.013  0.3674E+01  0.3165E+01
     -3.945  0.3370E+01  0.3399E+01
     -3.876  0.2477E+01  0.3569E+01
     -3.808  0.3475E+01  0.3808E+01
     -3.739  0.3712E+01  0.4062E+01
     -3.671  0.4085E+01  0.4342E+01
     -3.602  0.2884E+01  0.4539E+01
     -3.534  0.3887E+01  0.4806E+01
     -3.465  0.4129E+01  0.5089E+01
     -3.397  0.4906E+01  0.5425E+01
     -3.329  0.4334E+01  0.5723E+01
     -3.260  0.3863E+01  0.5988E+01
     -3.192  0.4507E+01  0.6299E+01
     -3.123  0.4687E+01  0.6620E+01
     -3.055  0.4763E+01  0.6946E+01
     -2.986  0.3916E+01  0.7216E+01
     -2.918  0.6324E+01  0.7649E+01
     -2.849  0.4185E+01  0.7936E+01
     -2.781  0.4675E+01  0.8257E+01
     -2.712  0.5282E+01  0.8619E+01
     -2.644  0.6495E+01  0.9067E+01
     -2.575  0.6054E+01  0.9483E+01
     -2.507  0.4855E+01  0.9816E+01
     -2.438  0.5742E+01  0.1021E+02
     -2.370  0.4979E+01  0.1055E+02
     -2.302  0.8838E+01  0.1116E+02
     -2.233  0.5400E+01  0.1153E+02
     -2.165  0.6209E+01  0.1195E+02
     -2.096  0.8672E+01  0.1255E+02
     -2.028  0.7117E+01  0.1303E+02
     -1.959  0.7633E+01  0.1356E+02
     -1.891  0.7901E+01  0.1410E+02
     -1.822  0.8292E+01  0.1467E+02
     -1.754  0.1072E+02  0.1540E+02
     -1.685  0.8575E+01  0.1599E+02
     -1.617  0.9847E+01  0.1667E+02
     -1.548  0.1203E+02  0.1749E+02
     -1.480  0.1238E+02  0.1834E+02
     -1.412  0.1377E+02  0.1929E+02
     -1.343  0.1140E+02  0.2007E+02
     -1.275  0.2173E+02  0.2156E+02
     -1.206  0.2368E+02  0.2318E+02
     -1.138  0.2022E+02  0.2457E+02
     -1.069  0.2933E+02  0.2658E+02
     -1.001  0.3496E+02  0.2898E+02
     -0.932  0.3798E+02  0.3158E+02
     -0.864  0.3715E+02  0.3413E+02
     -0.795  0.4206E+02  0.3702E+02
     -0.727  0.3572E+02  0.3947E+02
     -0.658  0.4195E+02  0.4235E+02
     -0.590  0.4457E+02  0.4540E+02
     -0.522  0.5064E+02  0.4888E+02
     -0.453  0.6427E+02  0.5328E+02
     -0.385  0.6365E+02  0.5765E+02
     -0.316  0.7284E+02  0.6265E+02
     -0.248  0.8014E+02  0.6815E+02
     -0.179  0.7628E+02  0.7338E+02
     -0.111  0.6197E+02  0.7764E+02
     -0.042  0.6585E+02  0.8215E+02
      0.026  0.7000E+02  0.8696E+02
      0.095  0.6521E+02  0.9144E+02
      0.163  0.6598E+02  0.9597E+02
      0.232  0.6391E+02  0.1004E+03
      0.300  0.6845E+02  0.1050E+03
      0.369  0.8245E+02  0.1107E+03
      0.437  0.8102E+02  0.1163E+03
      0.505  0.9989E+02  0.1231E+03
      0.574  0.9442E+02  0.1296E+03
      0.642  0.1057E+03  0.1368E+03
      0.711  0.1041E+03  0.1440E+03
      0.779  0.1238E+03  0.1525E+03
      0.848  0.1224E+03  0.1609E+03
      0.916  0.1241E+03  0.1694E+03
      0.985  0.1531E+03  0.1799E+03
      1.053  0.1351E+03  0.1892E+03
      1.122  0.9932E+02  0.1960E+03
      1.190  0.8803E+02  0.2020E+03
      1.259  0.8127E+02  0.2076E+03
      1.327  0.7925E+02  0.2130E+03
      1.395  0.8467E+02  0.2188E+03
      1.464  0.1015E+03  0.2258E+03
      1.532  0.1137E+03  0.2336E+03
      1.601  0.1186E+03  0.2417E+03
      1.669  0.1210E+03  0.2500E+03
      1.738  0.1065E+03  0.2573E+03
      1.806  0.1015E+03  0.2643E+03
      1.875  0.9700E+02  0.2710E+03
      1.943  0.9876E+02  0.2777E+03
      2.012  0.1093E+03  0.2852E+03
      2.080  0.1122E+03  0.2929E+03
      2.149  0.1394E+03  0.3025E+03
      2.217  0.2026E+03  0.3164E+03
      2.286  0.1591E+03  0.3273E+03
      2.354  0.9378E+02  0.3338E+03
      2.422  0.2526E+02  0.3355E+03
      2.491  0.1135E+02  0.3363E+03
      2.559  0.1756E+02  0.3375E+03
      2.628  0.8538E+01  0.3381E+03
      2.696  0.1593E+02  0.3391E+03
      2.765  0.1113E+02  0.3399E+03
      2.833  0.1044E+02  0.3406E+03
      2.902  0.1390E+02  0.3416E+03
      2.970  0.1019E+02  0.3423E+03
      3.039  0.1115E+02  0.3430E+03
      3.107  0.1085E+02  0.3438E+03
      3.176  0.1136E+02  0.3446E+03
      3.244  0.9752E+01  0.3452E+03
      3.312  0.1282E+02  0.3461E+03
      3.381  0.1120E+02  0.3469E+03
      3.449  0.8189E+01  0.3475E+03
      3.518  0.7825E+01  0.3480E+03
      3.586  0.1252E+02  0.3488E+03
      3.655  0.1371E+02  0.3498E+03
      3.723  0.7210E+01  0.3503E+03
      3.792  0.6023E+01  0.3507E+03
      3.860  0.1060E+02  0.3514E+03
      3.929  0.1235E+02  0.3523E+03
      3.997  0.7332E+01  0.3528E+03
      4.066  0.9770E+01  0.3534E+03
      4.134  0.1083E+02  0.3542E+03
      4.202  0.6143E+01  0.3546E+03
      4.271  0.1021E+02  0.3553E+03
      4.339  0.9815E+01  0.3560E+03
      4.408  0.9552E+01  0.3566E+03
      4.476  0.9390E+01  0.3573E+03
      4.545  0.6451E+01  0.3577E+03
      4.613  0.7758E+01  0.3583E+03
      4.682  0.1164E+02  0.3591E+03
      4.750  0.9204E+01  0.3597E+03
      4.819  0.6779E+01  0.3602E+03
      4.887  0.8317E+01  0.3607E+03
      4.956  0.7765E+01  0.3613E+03
      5.024  0.6945E+01  0.3617E+03
      5.093  0.9604E+01  0.3624E+03
      5.161  0.9626E+01  0.3630E+03
      5.229  0.9880E+01  0.3637E+03
      5.298  0.6623E+01  0.3642E+03
      5.366  0.6928E+01  0.3647E+03
      5.435  0.6950E+01  0.3651E+03
      5.503  0.7441E+01  0.3656E+03
      5.572  0.1105E+02  0.3664E+03
      5.640  0.9446E+01  0.3670E+03
      5.709  0.6756E+01  0.3675E+03
      5.777  0.8937E+01  0.3681E+03
      5.846  0.8367E+01  0.3687E+03
      5.914  0.3521E+01  0.3689E+03
      5.983  0.6138E+01  0.3694E+03
      6.051  0.9538E+01  0.3700E+03
      6.119  0.1001E+02  0.3707E+03
      6.188  0.6083E+01  0.3711E+03
      6.256  0.7984E+01  0.3717E+03
      6.325  0.4196E+01  0.3720E+03
      6.393  0.7308E+01  0.3725E+03
      6.462  0.7823E+01  0.3730E+03
      6.530  0.4040E+01  0.3733E+03
      6.599  0.6281E+01  0.3737E+03
      6.667  0.8546E+01  0.3743E+03
      6.736  0.8673E+01  0.3749E+03
      6.804  0.2981E+01  0.3751E+03
      6.873  0.8702E+01  0.3757E+03
      6.941  0.3781E+01  0.3759E+03
      7.009  0.3992E+01  0.3762E+03
      7.078  0.7806E+01  0.3768E+03
      7.146  0.3625E+01  0.3770E+03
      7.215  0.6626E+01  0.3775E+03
      7.283  0.3633E+01  0.3777E+03
      7.352  0.8648E+01  0.3783E+03
      7.420  0.4913E+01  0.3786E+03
      7.489  0.2786E+01  0.3788E+03
      7.557  0.5654E+01  0.3792E+03
      7.626  0.3160E+01  0.3794E+03
      7.694  0.2505E+01  0.3796E+03
      7.763  0.8236E+01  0.3802E+03
      7.831  0.8423E+01  0.3807E+03
      7.900  0.7454E+01  0.3813E+03
      7.968  0.8251E+01  0.3818E+03
      8.036  0.9364E+01  0.3825E+03
      8.105  0.1013E+02  0.3832E+03
      8.173  0.5635E+01  0.3836E+03
      8.242  0.9605E+01  0.3842E+03
      8.310  0.1031E+02  0.3849E+03
      8.379  0.1087E+02  0.3857E+03
      8.447  0.6792E+01  0.3861E+03
      8.516  0.1210E+02  0.3870E+03
      8.584  0.5735E+01  0.3873E+03
      8.653  0.8807E+01  0.3880E+03
      8.721  0.1067E+02  0.3887E+03
      8.790  0.1168E+02  0.3895E+03
      8.858  0.5133E+01  0.3898E+03
      8.926  0.8671E+01  0.3904E+03
      8.995  0.1287E+02  0.3913E+03
      9.063  0.7248E+01  0.3918E+03
      9.132  0.1055E+02  0.3925E+03
      9.200  0.7546E+01  0.3930E+03
      9.269  0.8533E+01  0.3936E+03
      9.337  0.1138E+02  0.3944E+03
      9.406  0.8189E+01  0.3950E+03
      9.474  0.5895E+01  0.3954E+03
      9.543  0.1059E+02  0.3961E+03
      9.611  0.9061E+01  0.3967E+03
      9.680  0.5257E+01  0.3971E+03
      9.748  0.8899E+01  0.3977E+03
      9.816  0.8974E+01  0.3983E+03
      9.885  0.8174E+01  0.3989E+03
      9.953  0.8640E+01  0.3995E+03
     10.022  0.7288E+01  0.4000E+03
     10.090  0.9684E+01  0.4006E+03
     10.159  0.6428E+01  0.4011E+03
     10.227  0.8011E+01  0.4016E+03
     10.296  0.5616E+01  0.4020E+03
     10.364  0.7890E+01  0.4025E+03
     10.433  0.8380E+01  0.4031E+03
     10.501  0.7816E+01  0.4037E+03
     10.570  0.9029E+01  0.4043E+03
     10.638  0.6482E+01  0.4047E+03
     10.707  0.6375E+01  0.4052E+03
     10.775  0.6988E+01  0.4056E+03
     10.843  0.7415E+01  0.4061E+03
     10.912  0.5966E+01  0.4066E+03
     10.980  0.7509E+01  0.4071E+03
     11.049  0.7308E+01  0.4076E+03
     11.117  0.9572E+01  0.4082E+03
     11.186  0.7192E+01  0.4087E+03
     11.254  0.7033E+01  0.4092E+03
     11.323  0.9695E+01  0.4099E+03
     11.391  0.1086E+02  0.4106E+03
     11.460  0.1045E+02  0.4113E+03
     11.528  0.1167E+02  0.4121E+03
     11.597  0.8895E+01  0.4127E+03
     11.665  0.7547E+01  0.4133E+03
     11.733  0.9365E+01  0.4139E+03
     11.802  0.6442E+01  0.4143E+03
     11.870  0.1172E+02  0.4152E+03
     11.939  0.9872E+01  0.4158E+03
     12.007  0.9445E+01  0.4165E+03
     12.076  0.1337E+02  0.4174E+03
     12.144  0.1250E+02  0.4183E+03
     12.213  0.1045E+02  0.4190E+03
     12.281  0.1055E+02  0.4197E+03
     12.350  0.8282E+01  0.4203E+03
     12.418  0.7469E+01  0.4208E+03
     12.487  0.7803E+01  0.4213E+03
     12.555  0.7809E+01  0.4218E+03
     12.623  0.6288E+01  0.4223E+03
     12.692  0.7058E+01  0.4228E+03
     12.760  0.8239E+01  0.4233E+03
     12.829  0.4139E+01  0.4236E+03
     12.897  0.2279E+01  0.4238E+03
     12.966  0.5687E+00  0.4238E+03
     13.034  0.7010E+00  0.4239E+03
     13.103  0.1705E+01  0.4240E+03
     13.171  0.3404E+00  0.4240E+03
     13.240  0.0000E+00  0.4240E+03
     13.308  0.0000E+00  0.4240E+03
     13.377  0.0000E+00  0.4240E+03
     13.445  0.0000E+00  0.4240E+03
     13.514  0.0000E+00  0.4240E+03
     13.582  0.0000E+00  0.4240E+03
     13.650  0.0000E+00  0.4240E+03
     13.719  0.0000E+00  0.4240E+03
     13.787  0.0000E+00  0.4240E+03
     13.856  0.0000E+00  0.4240E+03
     13.924  0.0000E+00  0.4240E+03
     13.993  0.0000E+00  0.4240E+03
     14.061  0.0000E+00  0.4240E+03
