   32   32    1    1
  0.1166450E+02  0.7200103E-09  0.7200103E-09  0.7200103E-09  0.5000000E-15
  1.000000000000000E-004
  CAR 
 unknown system                          
  352  196  212
 
  0.0000000E+00  0.0000000E+00  0.0000000E+00  0.5787037E-03
   1       -5.5442
   2       -2.7648
   3       -2.7616
   4       -2.7616
   5       -2.7616
   6       -2.7616
   7       -2.7583
   8       -1.2638
   9       -1.2638
  10       -1.2638
  11       -1.2638
  12       -1.0700
  13       -1.0699
  14       -1.0699
  15       -0.8686
  16       -0.8665
  17       -0.8665
  18       -0.8653
  19       -0.8650
  20       -0.8650
  21       -0.8650
  22       -0.8650
  23       -0.8648
  24       -0.8636
  25       -0.8636
  26       -0.8614
  27       -0.6095
  28       -0.6095
  29       -0.6095
  30       -0.3218
  31       -0.3197
  32       -0.3197
  33       -0.3197
  34       -0.3197
  35       -0.3177
  36        0.0784
  37        0.0803
  38        0.0803
  39        0.0803
  40        0.0803
  41        0.0821
  42        0.2930
  43        0.2934
  44        0.2934
  45        0.2956
  46        0.2956
  47        0.2956
  48        0.2956
  49        0.2957
  50        0.2958
  51        0.2958
  52        0.2970
  53        0.2970
  54        0.2977
  55        0.2988
  56        0.2988
  57        0.2992
  58        0.2992
  59        0.2993
  60        0.2993
  61        0.2993
  62        0.2993
  63        0.3007
  64        0.3007
  65        0.3035
  66        0.5080
  67        0.5106
  68        0.5106
  69        0.5109
  70        0.5112
  71        0.5112
  72        0.5112
  73        0.5112
  74        0.5114
  75        0.5117
  76        0.5117
  77        0.5143
  78        0.7784
  79        0.7784
  80        0.7784
  81        0.7784
  82        0.7784
  83        0.7784
  84        0.7784
  85        0.7784
  86        0.8090
  87        0.8090
  88        0.8090
  89        1.1893
  90        1.1910
  91        1.1911
  92        1.1911
  93        1.1911
  94        1.1928
  95        1.3203
  96        1.3208
  97        1.3216
  98        1.3216
  99        1.3221
 100        1.3221
 101        1.3221
 102        1.3221
 103        1.3227
 104        1.3227
 105        1.3236
 106        1.3239
 107        1.4806
 108        1.4806
 109        1.4824
 110        1.4824
 111        1.4826
 112        1.4826
 113        1.4826
 114        1.4826
 115        1.4828
 116        1.4828
 117        1.4846
 118        1.4846
 119        1.6112
 120        1.6123
 121        1.6123
 122        1.6124
 123        1.6124
 124        1.6135
 125        1.6443
 126        1.6443
 127        1.6458
 128        1.6462
 129        1.6463
 130        1.6463
 131        1.6463
 132        1.6463
 133        1.6464
 134        1.6468
 135        1.6485
 136        1.6485
 137        1.6531
 138        1.6533
 139        1.9293
 140        1.9302
 141        1.9302
 142        1.9302
 143        1.9302
 144        1.9311
 145        2.2134
 146        2.2134
 147        2.2135
 148        2.2279
 149        2.2279
 150        2.2279
 151        2.2279
 152        2.2279
 153        2.2279
 154        2.2279
 155        2.2279
 156        2.3702
 157        2.3707
 158        2.3707
 159        2.3707
 160        2.3707
 161        2.3707
 162        2.3714
 163        2.3715
 164        2.3715
 165        2.3715
 166        2.3715
 167        2.3720
 168        2.8666
 169        2.8667
 170        2.8667
 171        2.8667
 172        3.5774
 173        3.5776
 174        3.5776
 175        3.5786
 176        3.5789
 177        3.5789
 178        3.5789
 179        3.5789
 180        3.5793
 181        3.5802
 182        3.5802
 183        3.5804
 184        5.4024
 185        5.4024
 186        5.4024
 187        7.7130
 188        7.7130
 189        7.7130
 190        7.7130
 191       10.1577
 192       10.1577
 193       10.1613
 194       10.1613
 195       10.1617
 196       10.1617
 197       10.1618
 198       10.1618
 199       10.1622
 200       10.1622
 201       10.1658
 202       10.1658
 203       11.1059
 204       11.1059
 205       11.1059
 206       12.2768
 207       12.2797
 208       12.2797
 209       12.2797
 210       12.2797
 211       12.2824
 212       12.8613
 
  0.8333333E-01  0.0000000E+00  0.0000000E+00  0.1157407E-02
   1       -5.5229
   2       -3.1507
   3       -2.7443
   4       -2.7442
   5       -2.7442
   6       -2.7442
   7       -2.3775
   8       -1.2588
   9       -1.2588
  10       -1.2588
  11       -1.2588
  12       -1.0766
  13       -1.0765
  14       -1.0765
  15       -1.0765
  16       -1.0697
  17       -1.0598
  18       -1.0598
  19       -0.8755
  20       -0.8755
  21       -0.8755
  22       -0.8755
  23       -0.6729
  24       -0.6729
  25       -0.6729
  26       -0.6729
  27       -0.6038
  28       -0.6035
  29       -0.6035
  30       -0.3372
  31       -0.3370
  32       -0.3119
  33       -0.3119
  34       -0.3119
  35       -0.3118
  36       -0.0119
  37        0.0827
  38        0.0828
  39        0.0828
  40        0.0828
  41        0.1479
  42        0.1479
  43        0.1731
  44        0.2817
  45        0.2821
  46        0.2821
  47        0.2822
  48        0.2873
  49        0.2873
  50        0.2873
  51        0.2873
  52        0.2964
  53        0.2965
  54        0.2966
  55        0.2966
  56        0.3119
  57        0.3120
  58        0.3120
  59        0.3122
  60        0.3228
  61        0.3228
  62        0.3228
  63        0.3232
  64        0.4372
  65        0.4373
  66        0.4373
  67        0.4373
  68        0.4569
  69        0.4569
  70        0.5164
  71        0.5164
  72        0.5165
  73        0.5165
  74        0.5719
  75        0.5720
  76        0.5720
  77        0.5720
  78        0.7743
  79        0.7743
  80        0.7743
  81        0.7743
  82        0.7839
  83        0.7839
  84        0.7839
  85        0.7840
  86        0.8026
  87        0.8141
  88        0.8141
  89        1.1602
  90        1.1603
  91        1.1603
  92        1.1603
  93        1.1984
  94        1.2258
  95        1.2980
  96        1.2981
  97        1.2981
  98        1.2981
  99        1.3204
 100        1.3204
 101        1.3204
 102        1.3204
 103        1.3473
 104        1.3473
 105        1.3474
 106        1.3474
 107        1.3848
 108        1.3848
 109        1.4825
 110        1.4825
 111        1.4826
 112        1.4826
 113        1.5090
 114        1.5090
 115        1.5090
 116        1.5090
 117        1.5839
 118        1.5839
 119        1.5998
 120        1.5998
 121        1.5998
 122        1.5998
 123        1.6123
 124        1.6125
 125        1.6125
 126        1.6125
 127        1.6272
 128        1.6272
 129        1.6473
 130        1.6554
 131        1.6710
 132        1.6710
 133        1.6710
 134        1.6712
 135        1.7025
 136        1.7025
 137        1.7025
 138        1.7025
 139        1.8937
 140        1.9366
 141        1.9366
 142        1.9366
 143        1.9366
 144        1.9669
 145        2.1422
 146        2.1422
 147        2.1422
 148        2.1422
 149        2.2059
 150        2.2059
 151        2.2110
 152        2.2217
 153        2.2217
 154        2.2217
 155        2.2217
 156        2.3307
 157        2.3307
 158        2.3618
 159        2.3618
 160        2.3618
 161        2.3618
 162        2.3618
 163        2.3618
 164        2.3702
 165        2.3707
 166        2.3715
 167        2.3720
 168        2.9295
 169        2.9295
 170        2.9295
 171        2.9295
 172        3.3043
 173        3.3044
 174        3.3044
 175        3.3044
 176        3.5761
 177        3.5761
 178        3.5761
 179        3.5761
 180        3.8995
 181        3.8995
 182        3.8995
 183        3.8995
 184        5.2604
 185        5.4614
 186        5.4614
 187        7.7729
 188        7.7729
 189        7.7730
 190        7.7730
 191        9.5785
 192        9.5785
 193        9.8500
 194        9.8500
 195        9.8501
 196        9.8501
 197       10.1907
 198       10.1907
 199       10.1907
 200       10.1907
 201       10.7651
 202       10.7651
 203       11.1136
 204       11.1136
 205       11.2899
 206       12.1793
 207       12.1794
 208       12.4487
 209       12.4488
 210       12.4488
 211       12.4488
 212       13.0029
 
  0.1666667E+00  0.0000000E+00  0.0000000E+00  0.1157407E-02
   1       -5.4590
   2       -3.5301
   3       -2.6925
   4       -2.6925
   5       -2.6925
   6       -2.6925
   7       -2.0183
   8       -1.3010
   9       -1.3009
  10       -1.3009
  11       -1.3009
  12       -1.2441
  13       -1.2441
  14       -1.2441
  15       -1.2440
  16       -1.0702
  17       -1.0299
  18       -1.0299
  19       -0.9047
  20       -0.9047
  21       -0.9047
  22       -0.9047
  23       -0.5866
  24       -0.5853
  25       -0.5853
  26       -0.5039
  27       -0.5039
  28       -0.5039
  29       -0.5039
  30       -0.3862
  31       -0.3861
  32       -0.2887
  33       -0.2887
  34       -0.2887
  35       -0.2887
  36       -0.1019
  37        0.0136
  38        0.0136
  39        0.0901
  40        0.0902
  41        0.0902
  42        0.0902
  43        0.2612
  44        0.2613
  45        0.2613
  46        0.2614
  47        0.2628
  48        0.2628
  49        0.2628
  50        0.2628
  51        0.2650
  52        0.2989
  53        0.2990
  54        0.2990
  55        0.2990
  56        0.3202
  57        0.3202
  58        0.3202
  59        0.3205
  60        0.3530
  61        0.3530
  62        0.3530
  63        0.3530
  64        0.3911
  65        0.3911
  66        0.3911
  67        0.3912
  68        0.5320
  69        0.5320
  70        0.5320
  71        0.5320
  72        0.6210
  73        0.6210
  74        0.6210
  75        0.6211
  76        0.6310
  77        0.6310
  78        0.7620
  79        0.7620
  80        0.7620
  81        0.7620
  82        0.7835
  83        0.8006
  84        0.8006
  85        0.8006
  86        0.8006
  87        0.8294
  88        0.8294
  89        1.0922
  90        1.0922
  91        1.0922
  92        1.0922
  93        1.2327
  94        1.2412
  95        1.2413
  96        1.2413
  97        1.2413
  98        1.2919
  99        1.2919
 100        1.3222
 101        1.3426
 102        1.3426
 103        1.3426
 104        1.3428
 105        1.3895
 106        1.3895
 107        1.3895
 108        1.3896
 109        1.4825
 110        1.4825
 111        1.4825
 112        1.4825
 113        1.5588
 114        1.5588
 115        1.5590
 116        1.5590
 117        1.5628
 118        1.5629
 119        1.5630
 120        1.5630
 121        1.6121
 122        1.6121
 123        1.6121
 124        1.6121
 125        1.6300
 126        1.6623
 127        1.6690
 128        1.6690
 129        1.6872
 130        1.6872
 131        1.7297
 132        1.7298
 133        1.7298
 134        1.7298
 135        1.7676
 136        1.7676
 137        1.7676
 138        1.7676
 139        1.8579
 140        1.9489
 141        1.9489
 142        1.9489
 143        1.9489
 144        1.9607
 145        1.9607
 146        1.9607
 147        1.9607
 148        2.0029
 149        2.1835
 150        2.1835
 151        2.2032
 152        2.2032
 153        2.2032
 154        2.2032
 155        2.2037
 156        2.2193
 157        2.2193
 158        2.3335
 159        2.3335
 160        2.3335
 161        2.3335
 162        2.3354
 163        2.3354
 164        2.3702
 165        2.3707
 166        2.3714
 167        2.3719
 168        3.0563
 169        3.0563
 170        3.0564
 171        3.0564
 172        3.0671
 173        3.0671
 174        3.0672
 175        3.0672
 176        3.5674
 177        3.5674
 178        3.5674
 179        3.5674
 180        4.2738
 181        4.2738
 182        4.2738
 183        4.2738
 184        4.8823
 185        5.6297
 186        5.6297
 187        7.9505
 188        7.9505
 189        7.9505
 190        7.9505
 191        9.0167
 192        9.0167
 193        9.1977
 194        9.1977
 195        9.1977
 196        9.1977
 197       10.2769
 198       10.2769
 199       10.2769
 200       10.2769
 201       11.1368
 202       11.1368
 203       11.3874
 204       11.3874
 205       11.7946
 206       11.9965
 207       11.9965
 208       12.4903
 209       12.4904
 210       12.4911
 211       12.4916
 212       12.6065
 
  0.2500000E+00  0.0000000E+00  0.0000000E+00  0.1157407E-02
   1       -5.3528
   2       -3.8896
   3       -2.6073
   4       -2.6073
   5       -2.6073
   6       -2.6073
   7       -1.7069
   8       -1.5304
   9       -1.5304
  10       -1.5304
  11       -1.5304
  12       -1.2200
  13       -1.2200
  14       -1.2200
  15       -1.2200
  16       -1.0744
  17       -0.9811
  18       -0.9811
  19       -0.9472
  20       -0.9472
  21       -0.9472
  22       -0.9472
  23       -0.5583
  24       -0.5549
  25       -0.5549
  26       -0.4601
  27       -0.4600
  28       -0.3588
  29       -0.3588
  30       -0.3588
  31       -0.3588
  32       -0.2513
  33       -0.2512
  34       -0.2512
  35       -0.2512
  36       -0.1881
  37       -0.1071
  38       -0.1071
  39        0.1022
  40        0.1022
  41        0.1022
  42        0.1022
  43        0.2237
  44        0.2238
  45        0.2238
  46        0.2238
  47        0.2376
  48        0.2377
  49        0.2377
  50        0.2377
  51        0.2636
  52        0.2636
  53        0.2636
  54        0.2636
  55        0.3027
  56        0.3029
  57        0.3029
  58        0.3029
  59        0.3242
  60        0.3243
  61        0.3243
  62        0.3244
  63        0.3545
  64        0.4969
  65        0.4969
  66        0.4969
  67        0.4969
  68        0.5590
  69        0.5590
  70        0.5590
  71        0.5591
  72        0.6634
  73        0.6634
  74        0.6634
  75        0.6635
  76        0.7423
  77        0.7423
  78        0.7423
  79        0.7423
  80        0.7521
  81        0.8175
  82        0.8175
  83        0.8280
  84        0.8280
  85        0.8280
  86        0.8280
  87        0.8548
  88        0.8548
  89        1.0144
  90        1.0144
  91        1.0144
  92        1.0144
  93        1.1719
  94        1.1720
  95        1.1720
  96        1.1720
  97        1.2051
  98        1.2051
  99        1.2830
 100        1.3835
 101        1.3836
 102        1.3836
 103        1.3836
 104        1.4397
 105        1.4397
 106        1.4397
 107        1.4397
 108        1.4827
 109        1.4827
 110        1.4827
 111        1.4827
 112        1.5038
 113        1.5347
 114        1.5347
 115        1.5347
 116        1.5347
 117        1.5945
 118        1.5946
 119        1.5946
 120        1.5946
 121        1.6016
 122        1.6097
 123        1.6097
 124        1.6097
 125        1.6097
 126        1.6740
 127        1.7173
 128        1.7173
 129        1.7173
 130        1.7173
 131        1.7312
 132        1.7312
 133        1.7906
 134        1.7906
 135        1.8020
 136        1.8020
 137        1.8020
 138        1.8020
 139        1.8235
 140        1.8403
 141        1.8403
 142        1.8403
 143        1.8403
 144        2.0139
 145        2.0139
 146        2.0139
 147        2.0139
 148        2.0379
 149        2.0561
 150        2.0561
 151        2.1468
 152        2.1468
 153        2.1728
 154        2.1728
 155        2.1728
 156        2.1728
 157        2.1917
 158        2.2883
 159        2.2883
 160        2.2883
 161        2.2883
 162        2.2924
 163        2.2924
 164        2.3702
 165        2.3708
 166        2.3714
 167        2.3719
 168        2.8589
 169        2.8589
 170        2.8589
 171        2.8589
 172        3.1844
 173        3.1845
 174        3.1845
 175        3.1845
 176        3.5519
 177        3.5519
 178        3.5519
 179        3.5519
 180        4.3636
 181        4.7071
 182        4.7071
 183        4.7071
 184        4.7071
 185        5.8877
 186        5.8877
 187        8.2392
 188        8.2392
 189        8.2393
 190        8.2393
 191        8.4643
 192        8.4643
 193        8.4644
 194        8.4644
 195        8.4778
 196        8.4778
 197       10.4186
 198       10.4186
 199       10.4186
 200       10.4186
 201       11.1762
 202       11.1762
 203       11.7204
 204       11.7204
 205       11.7204
 206       11.7204
 207       11.8157
 208       11.8157
 209       12.0274
 210       12.0274
 211       12.2718
 212       12.2719
 
  0.3333333E+00  0.0000000E+00  0.0000000E+00  0.1157407E-02
   1       -5.2051
   2       -4.2222
   3       -2.4899
   4       -2.4899
   5       -2.4899
   6       -2.4899
   7       -1.7564
   8       -1.7564
   9       -1.7564
  10       -1.7564
  11       -1.4620
  12       -1.1872
  13       -1.1872
  14       -1.1872
  15       -1.1872
  16       -1.0877
  17       -0.9971
  18       -0.9970
  19       -0.9970
  20       -0.9970
  21       -0.9153
  22       -0.9153
  23       -0.5499
  24       -0.5499
  25       -0.5193
  26       -0.5122
  27       -0.5122
  28       -0.2693
  29       -0.2381
  30       -0.2381
  31       -0.2380
  32       -0.2380
  33       -0.2143
  34       -0.2143
  35       -0.2023
  36       -0.2022
  37       -0.2022
  38       -0.2022
  39        0.1185
  40        0.1185
  41        0.1185
  42        0.1186
  43        0.1728
  44        0.1730
  45        0.1730
  46        0.1730
  47        0.1762
  48        0.1762
  49        0.1762
  50        0.1764
  51        0.2122
  52        0.2123
  53        0.2123
  54        0.2123
  55        0.3075
  56        0.3078
  57        0.3078
  58        0.3078
  59        0.3248
  60        0.3248
  61        0.3248
  62        0.3251
  63        0.4397
  64        0.5775
  65        0.5775
  66        0.5775
  67        0.5775
  68        0.6525
  69        0.6525
  70        0.6525
  71        0.6525
  72        0.7053
  73        0.7054
  74        0.7054
  75        0.7054
  76        0.7090
  77        0.7161
  78        0.7161
  79        0.7161
  80        0.7162
  81        0.8656
  82        0.8656
  83        0.8656
  84        0.8657
  85        0.8901
  86        0.8901
  87        0.9380
  88        0.9380
  89        0.9381
  90        0.9381
  91        1.0151
  92        1.0151
  93        1.1005
  94        1.1006
  95        1.1006
  96        1.1006
  97        1.1252
  98        1.1252
  99        1.3413
 100        1.4352
 101        1.4352
 102        1.4352
 103        1.4352
 104        1.4767
 105        1.4770
 106        1.4770
 107        1.4770
 108        1.4837
 109        1.4837
 110        1.4837
 111        1.4840
 112        1.4892
 113        1.4892
 114        1.4892
 115        1.4892
 116        1.5144
 117        1.5144
 118        1.5144
 119        1.5144
 120        1.5632
 121        1.5998
 122        1.6000
 123        1.6000
 124        1.6000
 125        1.6028
 126        1.6028
 127        1.6028
 128        1.6030
 129        1.6899
 130        1.7871
 131        1.7909
 132        1.8058
 133        1.8059
 134        1.8613
 135        1.8613
 136        1.8774
 137        1.8774
 138        1.8774
 139        1.8774
 140        1.8921
 141        1.8921
 142        1.9186
 143        1.9186
 144        1.9187
 145        1.9187
 146        2.0711
 147        2.0965
 148        2.0966
 149        2.1014
 150        2.1014
 151        2.1014
 152        2.1015
 153        2.1312
 154        2.1312
 155        2.1312
 156        2.1312
 157        2.1752
 158        2.2289
 159        2.2289
 160        2.2289
 161        2.2289
 162        2.2343
 163        2.2343
 164        2.3703
 165        2.3709
 166        2.3713
 167        2.3719
 168        2.6733
 169        2.6733
 170        2.6733
 171        2.6733
 172        3.2934
 173        3.2934
 174        3.2934
 175        3.2934
 176        3.5280
 177        3.5280
 178        3.5280
 179        3.5280
 180        3.7855
 181        5.2015
 182        5.2015
 183        5.2015
 184        5.2015
 185        6.2148
 186        6.2148
 187        7.7317
 188        7.7317
 189        7.7317
 190        7.7317
 191        7.9632
 192        7.9632
 193        8.6295
 194        8.6295
 195        8.6295
 196        8.6295
 197       10.6134
 198       10.6134
 199       10.6134
 200       10.6134
 201       10.9845
 202       10.9845
 203       10.9845
 204       10.9845
 205       11.2325
 206       11.2325
 207       11.6547
 208       11.6547
 209       11.8594
 210       11.8594
 211       11.8594
 212       11.8594
 
  0.4166667E+00  0.0000000E+00  0.0000000E+00  0.1157407E-02
   1       -5.0166
   2       -4.5230
   3       -2.3426
   4       -2.3425
   5       -2.3425
   6       -2.3425
   7       -1.9712
   8       -1.9712
   9       -1.9712
  10       -1.9711
  11       -1.2897
  12       -1.1468
  13       -1.1468
  14       -1.1468
  15       -1.1467
  16       -1.1189
  17       -1.0493
  18       -1.0493
  19       -1.0493
  20       -1.0493
  21       -0.8352
  22       -0.8351
  23       -0.6471
  24       -0.6471
  25       -0.4700
  26       -0.4569
  27       -0.4569
  28       -0.3441
  29       -0.3082
  30       -0.3082
  31       -0.1486
  32       -0.1486
  33       -0.1486
  34       -0.1484
  35       -0.1471
  36       -0.1470
  37       -0.1469
  38       -0.1469
  39        0.1031
  40        0.1032
  41        0.1032
  42        0.1032
  43        0.1171
  44        0.1171
  45        0.1171
  46        0.1172
  47        0.1385
  48        0.1386
  49        0.1386
  50        0.1386
  51        0.1865
  52        0.1865
  53        0.1865
  54        0.1865
  55        0.3127
  56        0.3132
  57        0.3132
  58        0.3132
  59        0.3225
  60        0.3225
  61        0.3225
  62        0.3231
  63        0.5191
  64        0.6145
  65        0.6145
  66        0.6145
  67        0.6145
  68        0.6551
  69        0.6849
  70        0.6849
  71        0.6849
  72        0.6849
  73        0.7518
  74        0.7518
  75        0.7518
  76        0.7518
  77        0.8235
  78        0.8235
  79        0.8235
  80        0.8235
  81        0.8677
  82        0.8678
  83        0.8678
  84        0.8678
  85        0.9129
  86        0.9129
  87        0.9129
  88        0.9129
  89        0.9352
  90        0.9352
  91        1.0319
  92        1.0319
  93        1.0319
  94        1.0319
  95        1.0533
  96        1.0533
  97        1.2221
  98        1.2221
  99        1.2424
 100        1.2425
 101        1.2425
 102        1.2425
 103        1.4022
 104        1.4863
 105        1.4863
 106        1.4864
 107        1.4864
 108        1.4894
 109        1.4895
 110        1.4895
 111        1.4895
 112        1.5004
 113        1.5004
 114        1.5004
 115        1.5004
 116        1.5159
 117        1.5322
 118        1.5322
 119        1.5322
 120        1.5322
 121        1.5788
 122        1.5788
 123        1.5789
 124        1.5789
 125        1.5887
 126        1.5887
 127        1.5887
 128        1.5888
 129        1.6510
 130        1.6510
 131        1.7098
 132        1.7608
 133        1.8851
 134        1.8851
 135        1.9506
 136        1.9506
 137        1.9506
 138        1.9506
 139        1.9896
 140        1.9896
 141        1.9999
 142        1.9999
 143        1.9999
 144        1.9999
 145        2.0345
 146        2.0345
 147        2.0794
 148        2.0794
 149        2.0794
 150        2.0794
 151        2.1019
 152        2.1544
 153        2.1586
 154        2.1586
 155        2.1586
 156        2.1586
 157        2.1630
 158        2.1630
 159        2.1760
 160        2.2173
 161        2.2173
 162        2.2173
 163        2.2173
 164        2.3703
 165        2.3710
 166        2.3712
 167        2.3719
 168        2.5055
 169        2.5055
 170        2.5055
 171        2.5055
 172        3.2032
 173        3.3797
 174        3.3797
 175        3.3797
 176        3.3797
 177        3.4934
 178        3.4934
 179        3.4935
 180        3.4935
 181        5.7559
 182        5.7559
 183        5.7559
 184        5.7559
 185        6.5952
 186        6.5952
 187        7.0280
 188        7.0280
 189        7.0280
 190        7.0280
 191        7.4755
 192        7.4755
 193        9.1100
 194        9.1100
 195        9.1100
 196        9.1100
 197       10.2976
 198       10.2976
 199       10.2976
 200       10.2976
 201       10.8582
 202       10.8582
 203       10.8582
 204       10.8582
 205       11.3071
 206       11.3071
 207       11.4844
 208       11.4844
 209       11.4844
 210       11.4844
 211       11.5167
 212       11.5167
 
  0.5000000E+00  0.0000000E+00  0.0000000E+00  0.5787037E-03
   1       -4.7902
   2       -4.7871
   3       -2.1718
   4       -2.1691
   5       -2.1691
   6       -2.1690
   7       -2.1676
   8       -2.1674
   9       -2.1674
  10       -2.1648
  11       -1.1814
  12       -1.1802
  13       -1.1017
  14       -1.1017
  15       -1.1007
  16       -1.1003
  17       -1.0998
  18       -1.0996
  19       -1.0985
  20       -1.0985
  21       -0.7459
  22       -0.7448
  23       -0.7435
  24       -0.7425
  25       -0.4125
  26       -0.4102
  27       -0.3901
  28       -0.3901
  29       -0.3879
  30       -0.3879
  31       -0.1144
  32       -0.1141
  33       -0.1141
  34       -0.1139
  35       -0.1132
  36       -0.1129
  37       -0.1129
  38       -0.1128
  39        0.0774
  40        0.0781
  41        0.0781
  42        0.0781
  43        0.0784
  44        0.0784
  45        0.0785
  46        0.0792
  47        0.1598
  48        0.1606
  49        0.1606
  50        0.1612
  51        0.1619
  52        0.1625
  53        0.1625
  54        0.1631
  55        0.3160
  56        0.3177
  57        0.3177
  58        0.3181
  59        0.3186
  60        0.3190
  61        0.3190
  62        0.3207
  63        0.5911
  64        0.5917
  65        0.6496
  66        0.6498
  67        0.6498
  68        0.6504
  69        0.6504
  70        0.6509
  71        0.6509
  72        0.6513
  73        0.8047
  74        0.8047
  75        0.8047
  76        0.8054
  77        0.8059
  78        0.8064
  79        0.8065
  80        0.8065
  81        0.9670
  82        0.9674
  83        0.9674
  84        0.9685
  85        0.9691
  86        0.9700
  87        0.9700
  88        0.9704
  89        0.9888
  90        0.9888
  91        0.9907
  92        0.9907
  93        1.0215
  94        1.0222
  95        1.0222
  96        1.0223
  97        1.0227
  98        1.0228
  99        1.0228
 100        1.0235
 101        1.4350
 102        1.4350
 103        1.4361
 104        1.4361
 105        1.4610
 106        1.4619
 107        1.4911
 108        1.4911
 109        1.4912
 110        1.4915
 111        1.4916
 112        1.4918
 113        1.4920
 114        1.4920
 115        1.5383
 116        1.5390
 117        1.5390
 118        1.5391
 119        1.5399
 120        1.5400
 121        1.5400
 122        1.5407
 123        1.5646
 124        1.5650
 125        1.5652
 126        1.5652
 127        1.5659
 128        1.5659
 129        1.5662
 130        1.5666
 131        1.7328
 132        1.7345
 133        1.9628
 134        1.9628
 135        1.9630
 136        1.9630
 137        2.0180
 138        2.0182
 139        2.0183
 140        2.0183
 141        2.0190
 142        2.0190
 143        2.0191
 144        2.0194
 145        2.0798
 146        2.0798
 147        2.0806
 148        2.0806
 149        2.0808
 150        2.0808
 151        2.0809
 152        2.0809
 153        2.0813
 154        2.0814
 155        2.0822
 156        2.0822
 157        2.1298
 158        2.1299
 159        2.3524
 160        2.3531
 161        2.3531
 162        2.3533
 163        2.3534
 164        2.3536
 165        2.3536
 166        2.3543
 167        2.3703
 168        2.3711
 169        2.3711
 170        2.3719
 171        2.6552
 172        2.6575
 173        3.4438
 174        3.4442
 175        3.4447
 176        3.4447
 177        3.4457
 178        3.4457
 179        3.4462
 180        3.4466
 181        6.3637
 182        6.3645
 183        6.3645
 184        6.3663
 185        6.3670
 186        6.3688
 187        6.3688
 188        6.3696
 189        7.0162
 190        7.0162
 191        7.0195
 192        7.0195
 193        9.6671
 194        9.6676
 195        9.6676
 196        9.6692
 197        9.6699
 198        9.6715
 199        9.6715
 200        9.6719
 201       11.1474
 202       11.1474
 203       11.1493
 204       11.1495
 205       11.1498
 206       11.1500
 207       11.1519
 208       11.1519
 209       11.4010
 210       11.4013
 211       11.4013
 212       11.4016
 
  0.0000000E+00  0.8333333E-01  0.0000000E+00  0.2314815E-02
   1       -5.5229
   2       -3.1507
   3       -2.7467
   4       -2.7442
   5       -2.7442
   6       -2.7418
   7       -2.3775
   8       -1.2589
   9       -1.2588
  10       -1.2588
  11       -1.2588
  12       -1.0785
  13       -1.0765
  14       -1.0765
  15       -1.0746
  16       -1.0697
  17       -1.0598
  18       -1.0598
  19       -0.8768
  20       -0.8757
  21       -0.8753
  22       -0.8742
  23       -0.6746
  24       -0.6730
  25       -0.6729
  26       -0.6712
  27       -0.6038
  28       -0.6035
  29       -0.6035
  30       -0.3371
  31       -0.3370
  32       -0.3133
  33       -0.3119
  34       -0.3119
  35       -0.3104
  36       -0.0119
  37        0.0813
  38        0.0828
  39        0.0828
  40        0.0842
  41        0.1478
  42        0.1479
  43        0.1731
  44        0.2806
  45        0.2821
  46        0.2822
  47        0.2834
  48        0.2862
  49        0.2873
  50        0.2875
  51        0.2885
  52        0.2948
  53        0.2965
  54        0.2965
  55        0.2983
  56        0.3105
  57        0.3119
  58        0.3120