 vasp.4.6.28 25Jul05 complex 
 executed on             LinuxIFC date 2017.01.11  01:54:01
 running on    4 nodes
 distr:  one band on    1 nodes,    4 groups


--------------------------------------------------------------------------------------------------------


 INCAR:
 POTCAR:   PAW_PBE Cu 05Jan2001                   
 POTCAR:   PAW_PBE Cu 05Jan2001                   
   VRHFIN =Cu: d10 p1                                                           
   LEXCH  = PE                                                                  
   EATOM  =  1390.9800 eV,  102.2341 Ry                                         
                                                                                
   TITEL  = PAW_PBE Cu 05Jan2001                                                
   LULTRA =        F    use ultrasoft PP ?                                      
   IUNSCR =        1    unscreen: 0-lin 1-nonlin 2-no                           
   RPACOR =    2.000    partial core radius                                     
   POMASS =   63.546; ZVAL   =   11.000    mass and valenz                      
   RCORE  =    2.300    outmost cutoff radius                                   
   RWIGS  =    2.480; RWIGS  =    1.312    wigner-seitz radius (au A)           
   ENMAX  =  273.214; ENMIN  =  204.910 eV                                      
   RCLOC  =    1.712    cutoff for local pot                                    
   LCOR   =        T    correct aug charges                                     
   LPAW   =        T    paw PP                                                  
   EAUG   =  516.456                                                            
   DEXC   =    -.008                                                            
   RMAX   =    2.789    core radius for proj-oper                               
   RAUG   =    1.300    factor for augmentation sphere                          
   RDEP   =    2.302    radius for radial grids                                 
   QCUT   =   -4.481; QGAM   =    8.962    optimization parameters              
                                                                                
   Description                                                                  
     l     E      TYP  RCUT    TYP  RCUT                                        
     2   .000     23  2.300                                                     
     2   .000     23  2.300                                                     
     0   .000     23  2.300                                                     
     0   .000     23  2.300                                                     
     1  -.200     23  2.300                                                     
     1   .000     23  2.300                                                     
     3   .000      7   .000                                                     
  local pseudopotential read in
  partial core-charges read in
  atomic valenz-charges read in
  non local Contribution for L=           2  read in
    real space projection operators read in
  non local Contribution for L=           2  read in
    real space projection operators read in
  non local Contribution for L=           0  read in
    real space projection operators read in
  non local Contribution for L=           0  read in
    real space projection operators read in
  non local Contribution for L=           1  read in
    real space projection operators read in
  non local Contribution for L=           1  read in
    real space projection operators read in
    PAW grid and wavefunctions read in
 
   number of l-projection  operators is LMAX  =           6
   number of lm-projection operators is LMMAX =          18
 

 ----------------------------------------------------------------------------- 
|                                                                             |
|  ADVICE TO THIS USER RUNNING 'VASP/VAMP'   (HEAR YOUR MASTER'S VOICE ...):  |
|                                                                             |
|      You have a (more or less) 'large supercell' and for larger cells       |
|      it might be more efficient to use real space projection operators      |
|      So try LREAL= Auto  in the INCAR   file.                               |
|      Mind: If you want to do an extremely accurate calculations keep the    |
|      reciprocal projection scheme          (i.e. LREAL=.FALSE.)             |
|                                                                             |
 ----------------------------------------------------------------------------- 

 PAW_PBE Cu 05Jan2001                   :
 energy of atom  1       EATOM=-1390.9800
 kinetic energy error for atom=    0.0006 (will be added to EATOM!!)
 
 EXHCAR: internal setup
 exchange correlation table for  LEXCH =        8
   RHO(1)=    0.500       N(1)  =     2000
   RHO(2)=  100.500       N(2)  =     4000
 
 POSCAR: Cu                                      
  positions in direct lattice
  No initial velocities read in
 


--------------------------------------------------------------------------------------------------------


 ion  position               nearest neighbor table
   1  0.001  0.000  0.000-   9 2.54  11 2.54  17 2.54  21 2.54  25 2.55  27 2.55  29 2.55  31 2.55
                            10 2.55  18 2.55  12 2.55  22 2.55
   2  0.500  0.000  0.000-   9 2.55  10 2.55  11 2.55  12 2.55  17 2.55  18 2.55  21 2.55  22 2.55
                            26 2.55  28 2.55  30 2.55  32 2.55
   3  0.000  0.500  0.000-   9 2.55  10 2.55  11 2.55  12 2.55  19 2.55  20 2.55  23 2.55  24 2.55
                            25 2.55  27 2.55  29 2.55  31 2.55
   4  0.500  0.500  0.000-   9 2.55  10 2.55  11 2.55  12 2.55  19 2.55  20 2.55  23 2.55  24 2.55
                            26 2.55  28 2.55  30 2.55  32 2.55
   5  0.000  0.000  0.500-  13 2.55  14 2.55  15 2.55  16 2.55  17 2.55  18 2.55  21 2.55  22 2.55
                            25 2.55  27 2.55  29 2.55  31 2.55
   6  0.500  0.000  0.500-  13 2.55  14 2.55  15 2.55  16 2.55  17 2.55  18 2.55  21 2.55  22 2.55
                            26 2.55  28 2.55  30 2.55  32 2.55
   7  0.000  0.500  0.500-  13 2.55  14 2.55  15 2.55  16 2.55  19 2.55  20 2.55  23 2.55  24 2.55
                            25 2.55  27 2.55  29 2.55  31 2.55
   8  0.500  0.500  0.500-  13 2.55  14 2.55  15 2.55  16 2.55  19 2.55  20 2.55  23 2.55  24 2.55
                            26 2.55  28 2.55  30 2.55  32 2.55
   9  0.250  0.250  0.000-   1 2.54   2 2.55   3 2.55   4 2.55  17 2.55  19 2.55  21 2.55  23 2.55
                            25 2.55  26 2.55  29 2.55  30 2.55
  10  0.750  0.250  0.000-   2 2.55   3 2.55   4 2.55  18 2.55  20 2.55  22 2.55  24 2.55  25 2.55
                            26 2.55  29 2.55  30 2.55   1 2.55
  11  0.250  0.750  0.000-   1 2.54   2 2.55   3 2.55   4 2.55  17 2.55  19 2.55  21 2.55  23 2.55
                            27 2.55  28 2.55  31 2.55  32 2.55
  12  0.750  0.750  0.000-   2 2.55   3 2.55   4 2.55  18 2.55  20 2.55  22 2.55  24 2.55  27 2.55
                            28 2.55  31 2.55  32 2.55   1 2.55
  13  0.250  0.250  0.500-   5 2.55   6 2.55   7 2.55   8 2.55  17 2.55  19 2.55  21 2.55  23 2.55
                            25 2.55  26 2.55  29 2.55  30 2.55
  14  0.750  0.250  0.500-   5 2.55   6 2.55   7 2.55   8 2.55  18 2.55  20 2.55  22 2.55  24 2.55
                            25 2.55  26 2.55  29 2.55  30 2.55
  15  0.250  0.750  0.500-   5 2.55   6 2.55   7 2.55   8 2.55  17 2.55  19 2.55  21 2.55  23 2.55
                            27 2.55  28 2.55  31 2.55  32 2.55
  16  0.750  0.750  0.500-   5 2.55   6 2.55   7 2.55   8 2.55  18 2.55  20 2.55  22 2.55  24 2.55
                            27 2.55  28 2.55  31 2.55  32 2.55
  17  0.250  0.000  0.250-   1 2.54   2 2.55   5 2.55   6 2.55   9 2.55  11 2.55  13 2.55  15 2.55
                            25 2.55  26 2.55  27 2.55  28 2.55
  18  0.750  0.000  0.250-   2 2.55   5 2.55   6 2.55  10 2.55  12 2.55  14 2.55  16 2.55  25 2.55
                            26 2.55  27 2.55  28 2.55   1 2.55
  19  0.250  0.500  0.250-   3 2.55   4 2.55   7 2.55   8 2.55   9 2.55  11 2.55  13 2.55  15 2.55
                            25 2.55  26 2.55  27 2.55  28 2.55
  20  0.750  0.500  0.250-   3 2.55   4 2.55   7 2.55   8 2.55  10 2.55  12 2.55  14 2.55  16 2.55
                            25 2.55  26 2.55  27 2.55  28 2.55
  21  0.250  0.000  0.750-   1 2.54   2 2.55   5 2.55   6 2.55   9 2.55  11 2.55  13 2.55  15 2.55
                            29 2.55  30 2.55  31 2.55  32 2.55
  22  0.750  0.000  0.750-   2 2.55   5 2.55   6 2.55  10 2.55  12 2.55  14 2.55  16 2.55  29 2.55
                            30 2.55  31 2.55  32 2.55   1 2.55
  23  0.250  0.500  0.750-   3 2.55   4 2.55   7 2.55   8 2.55   9 2.55  11 2.55  13 2.55  15 2.55
                            29 2.55  30 2.55  31 2.55  32 2.55
  24  0.750  0.500  0.750-   3 2.55   4 2.55   7 2.55   8 2.55  10 2.55  12 2.55  14 2.55  16 2.55
                            29 2.55  30 2.55  31 2.55  32 2.55
  25  0.000  0.250  0.250-   3 2.55   5 2.55   7 2.55   9 2.55  10 2.55  13 2.55  14 2.55  17 2.55
                            18 2.55  19 2.55  20 2.55   1 2.55
  26  0.500  0.250  0.250-   2 2.55   4 2.55   6 2.55   8 2.55   9 2.55  10 2.55  13 2.55  14 2.55
                            17 2.55  18 2.55  19 2.55  20 2.55
  27  0.000  0.750  0.250-   3 2.55   5 2.55   7 2.55  11 2.55  12 2.55  15 2.55  16 2.55  17 2.55
                            18 2.55  19 2.55  20 2.55   1 2.55
  28  0.500  0.750  0.250-   2 2.55   4 2.55   6 2.55   8 2.55  11 2.55  12 2.55  15 2.55  16 2.55
                            17 2.55  18 2.55  19 2.55  20 2.55
  29  0.000  0.250  0.750-   3 2.55   5 2.55   7 2.55   9 2.55  10 2.55  13 2.55  14 2.55  21 2.55
                            22 2.55  23 2.55  24 2.55   1 2.55
  30  0.500  0.250  0.750-   2 2.55   4 2.55   6 2.55   8 2.55   9 2.55  10 2.55  13 2.55  14 2.55
                            21 2.55  22 2.55  23 2.55  24 2.55
  31  0.000  0.750  0.750-   3 2.55   5 2.55   7 2.55  11 2.55  12 2.55  15 2.55  16 2.55  21 2.55
                            22 2.55  23 2.55  24 2.55   1 2.55
  32  0.500  0.750  0.750-   2 2.55   4 2.55   6 2.55   8 2.55  11 2.55  12 2.55  15 2.55  16 2.55
                            21 2.55  22 2.55  23 2.55  24 2.55
 
  LATTYP: Found a simple cubic cell.
 ALAT       =     7.2001033072
  
  Lattice vectors:
  
 A1 = (   7.2001033072,   0.0000000000,   0.0000000000)
 A2 = (   0.0000000000,   7.2001033072,   0.0000000000)
 A3 = (   0.0000000000,   0.0000000000,   7.2001033072)
 Subroutine PRICEL returns:
 Original cell was already a primitive cell.
 

Analysis of symmetry for initial positions (statically):

 Routine SETGRP: Setting up the symmetry group for a 
 simple cubic supercell.


 Subroutine GETGRP returns: Found  8 space group operations
 (whereof  8 operations were pure point group operations)
 out of a pool of 48 trial point group operations.


The static configuration has the point symmetry C_4v.

Analysis of symmetry for dynamics (positions and initial velocities):

 Subroutine DYNSYM returns: Found  8 space group operations
 (whereof  8 operations were pure point group operations)
 out of a pool of  8 trial space group operations
 (whereof  8 operations were pure point group operations)
 and found also     1 'primitive' translations


The dynamic configuration has the point symmetry C_4v.
 
 
 KPOINTS: Automatic mesh                          

Automatic generation of k-mesh.
 
 Subroutine IBZKPT returns following result:
 ===========================================
 
 Found    196 irreducible k-points:
 
 Following reciprocal coordinates:
            Coordinates               Weight
  0.000000  0.000000  0.000000      1.000000
  0.083333  0.000000  0.000000      2.000000
  0.166667  0.000000  0.000000      2.000000
  0.250000  0.000000  0.000000      2.000000
  0.333333  0.000000  0.000000      2.000000
  0.416667  0.000000  0.000000      2.000000
  0.500000  0.000000  0.000000      1.000000
  0.000000  0.083333  0.000000      4.000000
  0.083333  0.083333  0.000000      8.000000
  0.166667  0.083333  0.000000      8.000000
  0.250000  0.083333  0.000000      8.000000
  0.333333  0.083333  0.000000      8.000000
  0.416667  0.083333  0.000000      8.000000
  0.500000  0.083333  0.000000      4.000000
  0.000000  0.166667  0.000000      4.000000
  0.083333  0.166667  0.000000      8.000000
  0.166667  0.166667  0.000000      8.000000
  0.250000  0.166667  0.000000      8.000000
  0.333333  0.166667  0.000000      8.000000
  0.416667  0.166667  0.000000      8.000000
  0.500000  0.166667  0.000000      4.000000
  0.000000  0.250000  0.000000      4.000000
  0.083333  0.250000  0.000000      8.000000
  0.166667  0.250000  0.000000      8.000000
  0.250000  0.250000  0.000000      8.000000
  0.333333  0.250000  0.000000      8.000000
  0.416667  0.250000  0.000000      8.000000
  0.500000  0.250000  0.000000      4.000000
  0.000000  0.333333  0.000000      4.000000
  0.083333  0.333333  0.000000      8.000000
  0.166667  0.333333  0.000000      8.000000
  0.250000  0.333333  0.000000      8.000000
  0.333333  0.333333  0.000000      8.000000
  0.416667  0.333333  0.000000      8.000000
  0.500000  0.333333  0.000000      4.000000
  0.000000  0.416667  0.000000      4.000000
  0.083333  0.416667  0.000000      8.000000
  0.166667  0.416667  0.000000      8.000000
  0.250000  0.416667  0.000000      8.000000
  0.333333  0.416667  0.000000      8.000000
  0.416667  0.416667  0.000000      8.000000
  0.500000  0.416667  0.000000      4.000000
  0.000000  0.500000  0.000000      2.000000
  0.083333  0.500000  0.000000      4.000000
  0.166667  0.500000  0.000000      4.000000
  0.250000  0.500000  0.000000      4.000000
  0.333333  0.500000  0.000000      4.000000
  0.416667  0.500000  0.000000      4.000000
  0.500000  0.500000  0.000000      2.000000
  0.000000  0.083333  0.083333      4.000000
  0.083333  0.083333  0.083333      8.000000
  0.166667  0.083333  0.083333      8.000000
  0.250000  0.083333  0.083333      8.000000
  0.333333  0.083333  0.083333      8.000000
  0.416667  0.083333  0.083333      8.000000
  0.500000  0.083333  0.083333      4.000000
  0.000000  0.166667  0.083333      8.000000
  0.083333  0.166667  0.083333     16.000000
  0.166667  0.166667  0.083333     16.000000
  0.250000  0.166667  0.083333     16.000000
  0.333333  0.166667  0.083333     16.000000
  0.416667  0.166667  0.083333     16.000000
  0.500000  0.166667  0.083333      8.000000
  0.000000  0.250000  0.083333      8.000000
  0.083333  0.250000  0.083333     16.000000
  0.166667  0.250000  0.083333     16.000000
  0.250000  0.250000  0.083333     16.000000
  0.333333  0.250000  0.083333     16.000000
  0.416667  0.250000  0.083333     16.000000
  0.500000  0.250000  0.083333      8.000000
  0.000000  0.333333  0.083333      8.000000
  0.083333  0.333333  0.083333     16.000000
  0.166667  0.333333  0.083333     16.000000
  0.250000  0.333333  0.083333     16.000000
  0.333333  0.333333  0.083333     16.000000
  0.416667  0.333333  0.083333     16.000000
  0.500000  0.333333  0.083333      8.000000
  0.000000  0.416667  0.083333      8.000000
  0.083333  0.416667  0.083333     16.000000
  0.166667  0.416667  0.083333     16.000000
  0.250000  0.416667  0.083333     16.000000
  0.333333  0.416667  0.083333     16.000000
  0.416667  0.416667  0.083333     16.000000
  0.500000  0.416667  0.083333      8.000000
  0.000000  0.500000  0.083333      4.000000
  0.083333  0.500000  0.083333      8.000000
  0.166667  0.500000  0.083333      8.000000
  0.250000  0.500000  0.083333      8.000000
  0.333333  0.500000  0.083333      8.000000
  0.416667  0.500000  0.083333      8.000000
  0.500000  0.500000  0.083333      4.000000
  0.000000  0.166667  0.166667      4.000000
  0.083333  0.166667  0.166667      8.000000
  0.166667  0.166667  0.166667      8.000000
  0.250000  0.166667  0.166667      8.000000
  0.333333  0.166667  0.166667      8.000000
  0.416667  0.166667  0.166667      8.000000
  0.500000  0.166667  0.166667      4.000000
  0.000000  0.250000  0.166667      8.000000
  0.083333  0.250000  0.166667     16.000000
  0.166667  0.250000  0.166667     16.000000
  0.250000  0.250000  0.166667     16.000000
  0.333333  0.250000  0.166667     16.000000
  0.416667  0.250000  0.166667     16.000000
  0.500000  0.250000  0.166667      8.000000
  0.000000  0.333333  0.166667      8.000000
  0.083333  0.333333  0.166667     16.000000
  0.166667  0.333333  0.166667     16.000000
  0.250000  0.333333  0.166667     16.000000
  0.333333  0.333333  0.166667     16.000000
  0.416667  0.333333  0.166667     16.000000
  0.500000  0.333333  0.166667      8.000000
  0.000000  0.416667  0.166667      8.000000
  0.083333  0.416667  0.166667     16.000000
  0.166667  0.416667  0.166667     16.000000
  0.250000  0.416667  0.166667     16.000000
  0.333333  0.416667  0.166667     16.000000
  0.416667  0.416667  0.166667     16.000000
  0.500000  0.416667  0.166667      8.000000
  0.000000  0.500000  0.166667      4.000000
  0.083333  0.500000  0.166667      8.000000
  0.166667  0.500000  0.166667      8.000000
  0.250000  0.500000  0.166667      8.000000
  0.333333  0.500000  0.166667      8.000000
  0.416667  0.500000  0.166667      8.000000
  0.500000  0.500000  0.166667      4.000000
  0.000000  0.250000  0.250000      4.000000
  0.083333  0.250000  0.250000      8.000000
  0.166667  0.250000  0.250000      8.000000
  0.250000  0.250000  0.250000      8.000000
  0.333333  0.250000  0.250000      8.000000
  0.416667  0.250000  0.250000      8.000000
  0.500000  0.250000  0.250000      4.000000
  0.000000  0.333333  0.250000      8.000000
  0.083333  0.333333  0.250000     16.000000
  0.166667  0.333333  0.250000     16.000000
  0.250000  0.333333  0.250000     16.000000
  0.333333  0.333333  0.250000     16.000000
  0.416667  0.333333  0.250000     16.000000
  0.500000  0.333333  0.250000      8.000000
  0.000000  0.416667  0.250000      8.000000
  0.083333  0.416667  0.250000     16.000000
  0.166667  0.416667  0.250000     16.000000
  0.250000  0.416667  0.250000     16.000000
  0.333333  0.416667  0.250000     16.000000
  0.416667  0.416667  0.250000     16.000000
  0.500000  0.416667  0.250000      8.000000
  0.000000  0.500000  0.250000      4.000000
  0.083333  0.500000  0.250000      8.000000
  0.166667  0.500000  0.250000      8.000000
  0.250000  0.500000  0.250000      8.000000
  0.333333  0.500000  0.250000      8.000000
  0.416667  0.500000  0.250000      8.000000
  0.500000  0.500000  0.250000      4.000000
  0.000000  0.333333  0.333333      4.000000
  0.083333  0.333333  0.333333      8.000000
  0.166667  0.333333  0.333333      8.000000
  0.250000  0.333333  0.333333      8.000000
  0.333333  0.333333  0.333333      8.000000
  0.416667  0.333333  0.333333      8.000000
  0.500000  0.333333  0.333333      4.000000
  0.000000  0.416667  0.333333      8.000000
  0.083333  0.416667  0.333333     16.000000
  0.166667  0.416667  0.333333     16.000000
  0.250000  0.416667  0.333333     16.000000
  0.333333  0.416667  0.333333     16.000000
  0.416667  0.416667  0.333333     16.000000
  0.500000  0.416667  0.333333      8.000000
  0.000000  0.500000  0.333333      4.000000
  0.083333  0.500000  0.333333      8.000000
  0.166667  0.500000  0.333333      8.000000
  0.250000  0.500000  0.333333      8.000000
  0.333333  0.500000  0.333333      8.000000
  0.416667  0.500000  0.333333      8.000000
  0.500000  0.500000  0.333333      4.000000
  0.000000  0.416667  0.416667      4.000000
  0.083333  0.416667  0.416667      8.000000
  0.166667  0.416667  0.416667      8.000000
  0.250000  0.416667  0.416667      8.000000
  0.333333  0.416667  0.416667      8.000000
  0.416667  0.416667  0.416667      8.000000
  0.500000  0.416667  0.416667      4.000000
  0.000000  0.500000  0.416667      4.000000
  0.083333  0.500000  0.416667      8.000000
  0.166667  0.500000  0.416667      8.000000
  0.250000  0.500000  0.416667      8.000000
  0.333333  0.500000  0.416667      8.000000
  0.416667  0.500000  0.416667      8.000000
  0.500000  0.500000  0.416667      4.000000
  0.000000  0.500000  0.500000      1.000000
  0.083333  0.500000  0.500000      2.000000
  0.166667  0.500000  0.500000      2.000000
  0.250000  0.500000  0.500000      2.000000
  0.333333  0.500000  0.500000      2.000000
  0.416667  0.500000  0.500000      2.000000
  0.500000  0.500000  0.500000      1.000000
 
 Following cartesian coordinates:
            Coordinates               Weight
  0.000000  0.000000  0.000000      1.000000
  0.011574  0.000000  0.000000      2.000000
  0.023148  0.000000  0.000000      2.000000
  0.034722  0.000000  0.000000      2.000000
  0.046296  0.000000  0.000000      2.000000
  0.057870  0.000000  0.000000      2.000000
  0.069443  0.000000  0.000000      1.000000
  0.000000  0.011574  0.000000      4.000000
  0.011574  0.011574  0.000000      8.000000
  0.023148  0.011574  0.000000      8.000000
  0.034722  0.011574  0.000000      8.000000
  0.046296  0.011574  0.000000      8.000000
  0.057870  0.011574  0.000000      8.000000
  0.069443  0.011574  0.000000      4.000000
  0.000000  0.023148  0.000000      4.000000
  0.011574  0.023148  0.000000      8.000000
  0.023148  0.023148  0.000000      8.000000
  0.034722  0.023148  0.000000      8.000000
  0.046296  0.023148  0.000000      8.000000
  0.057870  0.023148  0.000000      8.000000
  0.069443  0.023148  0.000000      4.000000
  0.000000  0.034722  0.000000      4.000000
  0.011574  0.034722  0.000000      8.000000
  0.023148  0.034722  0.000000      8.000000
  0.034722  0.034722  0.000000      8.000000
  0.046296  0.034722  0.000000      8.000000
  0.057870  0.034722  0.000000      8.000000
  0.069443  0.034722  0.000000      4.000000
  0.000000  0.046296  0.000000      4.000000
  0.011574  0.046296  0.000000      8.000000
  0.023148  0.046296  0.000000      8.000000
  0.034722  0.046296  0.000000      8.000000
  0.046296  0.046296  0.000000      8.000000
  0.057870  0.046296  0.000000      8.000000
  0.069443  0.046296  0.000000      4.000000
  0.000000  0.057870  0.000000      4.000000
  0.011574  0.057870  0.000000      8.000000
  0.023148  0.057870  0.000000      8.000000
  0.034722  0.057870  0.000000      8.000000
  0.046296  0.057870  0.000000      8.000000
  0.057870  0.057870  0.000000      8.000000
  0.069443  0.057870  0.000000      4.000000
  0.000000  0.069443  0.000000      2.000000
  0.011574  0.069443  0.000000      4.000000
  0.023148  0.069443  0.000000      4.000000
  0.034722  0.069443  0.000000      4.000000
  0.046296  0.069443  0.000000      4.000000
  0.057870  0.069443  0.000000      4.000000
  0.069443  0.069443  0.000000      2.000000
  0.000000  0.011574  0.011574      4.000000
  0.011574  0.011574  0.011574      8.000000
  0.023148  0.011574  0.011574      8.000000
  0.034722  0.011574  0.011574      8.000000
  0.046296  0.011574  0.011574      8.000000
  0.057870  0.011574  0.011574      8.000000
  0.069443  0.011574  0.011574      4.000000
  0.000000  0.023148  0.011574      8.000000
  0.011574  0.023148  0.011574     16.000000
  0.023148  0.023148  0.011574     16.000000
  0.034722  0.023148  0.011574     16.000000
  0.046296  0.023148  0.011574     16.000000
  0.057870  0.023148  0.011574     16.000000
  0.069443  0.023148  0.011574      8.000000
  0.000000  0.034722  0.011574      8.000000
  0.011574  0.034722  0.011574     16.000000
  0.023148  0.034722  0.011574     16.000000
  0.034722  0.034722  0.011574     16.000000
  0.046296  0.034722  0.011574     16.000000
  0.057870  0.034722  0.011574     16.000000
  0.069443  0.034722  0.011574      8.000000
  0.000000  0.046296  0.011574      8.000000
  0.011574  0.046296  0.011574     16.000000
  0.023148  0.046296  0.011574     16.000000
  0.034722  0.046296  0.011574     16.000000
  0.046296  0.046296  0.011574     16.000000
  0.057870  0.046296  0.011574     16.000000
  0.069443  0.046296  0.011574      8.000000
  0.000000  0.057870  0.011574      8.000000
  0.011574  0.057870  0.011574     16.000000
  0.023148  0.057870  0.011574     16.000000
  0.034722  0.057870  0.011574     16.000000
  0.046296  0.057870  0.011574     16.000000
  0.057870  0.057870  0.011574     16.000000
  0.069443  0.057870  0.011574      8.000000
  0.000000  0.069443  0.011574      4.000000
  0.011574  0.069443  0.011574      8.000000
  0.023148  0.069443  0.011574      8.000000
  0.034722  0.069443  0.011574      8.000000
  0.046296  0.069443  0.011574      8.000000
  0.057870  0.069443  0.011574      8.000000
  0.069443  0.069443  0.011574      4.000000
  0.000000  0.023148  0.023148      4.000000
  0.011574  0.023148  0.023148      8.000000
  0.023148  0.023148  0.023148      8.000000
  0.034722  0.023148  0.023148      8.000000
  0.046296  0.023148  0.023148      8.000000
  0.057870  0.023148  0.023148      8.000000
  0.069443  0.023148  0.023148      4.000000
  0.000000  0.034722  0.023148      8.000000
  0.011574  0.034722  0.023148     16.000000
  0.023148  0.034722  0.023148     16.000000
  0.034722  0.034722  0.023148     16.000000
  0.046296  0.034722  0.023148     16.000000
  0.057870  0.034722  0.023148     16.000000
  0.069443  0.034722  0.023148      8.000000
  0.000000  0.046296  0.023148      8.000000
  0.011574  0.046296  0.023148     16.000000
  0.023148  0.046296  0.023148     16.000000
  0.034722  0.046296  0.023148     16.000000
  0.046296  0.046296  0.023148     16.000000
  0.057870  0.046296  0.023148     16.000000
  0.069443  0.046296  0.023148      8.000000
  0.000000  0.057870  0.023148      8.000000
  0.011574  0.057870  0.023148     16.000000
  0.023148  0.057870  0.023148     16.000000
  0.034722  0.057870  0.023148     16.000000
  0.046296  0.057870  0.023148     16.000000
  0.057870  0.057870  0.023148     16.000000
  0.069443  0.057870  0.023148      8.000000
  0.000000  0.069443  0.023148      4.000000
  0.011574  0.069443  0.023148      8.000000
  0.023148  0.069443  0.023148      8.000000
  0.034722  0.069443  0.023148      8.000000
  0.046296  0.069443  0.023148      8.000000
  0.057870  0.069443  0.023148      8.000000
  0.069443  0.069443  0.023148      4.000000
  0.000000  0.034722  0.034722      4.000000
  0.011574  0.034722  0.034722      8.000000
  0.023148  0.034722  0.034722      8.000000
  0.034722  0.034722  0.034722      8.000000
  0.046296  0.034722  0.034722      8.000000
  0.057870  0.034722  0.034722      8.000000
  0.069443  0.034722  0.034722      4.000000
  0.000000  0.046296  0.034722      8.000000
  0.011574  0.046296  0.034722     16.000000
  0.023148  0.046296  0.034722     16.000000
  0.034722  0.046296  0.034722     16.000000
  0.046296  0.046296  0.034722     16.000000
  0.057870  0.046296  0.034722     16.000000
  0.069443  0.046296  0.034722      8.000000
  0.000000  0.057870  0.034722      8.000000
  0.011574  0.057870  0.034722     16.000000
  0.023148  0.057870  0.034722     16.000000
  0.034722  0.057870  0.034722     16.000000
  0.046296  0.057870  0.034722     16.000000
  0.057870  0.057870  0.034722     16.000000
  0.069443  0.057870  0.034722      8.000000
  0.000000  0.069443  0.034722      4.000000
  0.011574  0.069443  0.034722      8.000000
  0.023148  0.069443  0.034722      8.000000
  0.034722  0.069443  0.034722      8.000000
  0.046296  0.069443  0.034722      8.000000
  0.057870  0.069443  0.034722      8.000000
  0.069443  0.069443  0.034722      4.000000
  0.000000  0.046296  0.046296      4.000000
  0.011574  0.046296  0.046296      8.000000
  0.023148  0.046296  0.046296      8.000000
  0.034722  0.046296  0.046296      8.000000
  0.046296  0.046296  0.046296      8.000000
  0.057870  0.046296  0.046296      8.000000
  0.069443  0.046296  0.046296      4.000000
  0.000000  0.057870  0.046296      8.000000
  0.011574  0.057870  0.046296     16.000000
  0.023148  0.057870  0.046296     16.000000
  0.034722  0.057870  0.046296     16.000000
  0.046296  0.057870  0.046296     16.000000
  0.057870  0.057870  0.046296     16.000000
  0.069443  0.057870  0.046296      8.000000
  0.000000  0.069443  0.046296      4.000000
  0.011574  0.069443  0.046296      8.000000
  0.023148  0.069443  0.046296      8.000000
  0.034722  0.069443  0.046296      8.000000
  0.046296  0.069443  0.046296      8.000000
  0.057870  0.069443  0.046296      8.000000
  0.069443  0.069443  0.046296      4.000000
  0.000000  0.057870  0.057870      4.000000
  0.011574  0.057870  0.057870      8.000000
  0.023148  0.057870  0.057870      8.000000
  0.034722  0.057870  0.057870      8.000000
  0.046296  0.057870  0.057870      8.000000
  0.057870  0.057870  0.057870      8.000000
  0.069443  0.057870  0.057870      4.000000
  0.000000  0.069443  0.057870      4.000000
  0.011574  0.069443  0.057870      8.000000
  0.023148  0.069443  0.057870      8.000000
  0.034722  0.069443  0.057870      8.000000
  0.046296  0.069443  0.057870      8.000000
  0.057870  0.069443  0.057870      8.000000
  0.069443  0.069443  0.057870      4.000000
  0.000000  0.069443  0.069443      1.000000
  0.011574  0.069443  0.069443      2.000000
  0.023148  0.069443  0.069443      2.000000
  0.034722  0.069443  0.069443      2.000000
  0.046296  0.069443  0.069443      2.000000
  0.057870  0.069443  0.069443      2.000000
  0.069443  0.069443  0.069443      1.000000
 


--------------------------------------------------------------------------------------------------------




 Dimension of arrays:
   k-Points           NKPTS =    196   number of bands    NBANDS=    212
   number of dos      NEDOS =    301   number of ions     NIONS =     32
   non local maximal  LDIM  =      6   non local SUM 2l+1 LMDIM =     18
   total plane-waves  NPLWV = 262144
   max r-space proj   IRMAX =      1   max aug-charges    IRDMAX= 197365
   dimension x,y,z NGX =    64 NGY =   64 NGZ =   64
   dimension x,y,z NGXF=   128 NGYF=  128 NGZF=  128
   support grid    NGXF=   256 NGYF=  256 NGZF=  256
   ions per type =              32
 NGX,Y,Z   is equivalent  to a cutoff of  14.78, 14.78, 14.78 a.u.
 NGXF,Y,Z  is equivalent  to a cutoff of  29.55, 29.55, 29.55 a.u.


 I would recommend the setting:
   dimension x,y,z NGX =    64 NGY =   64 NGZ =   64
 SYSTEM =  unknown system                          
 POSCAR =  Cu                                      

 Startparameter for this run:
   NWRITE =      2    write-flag & timer
   PREC   = accura    medium, high low
   ISTART =      0    job   : 0-new  1-cont  2-samecut
   ICHARG =      2    charge: 1-file 2-atom 10-const
   ISPIN  =      1    spin polarized calculation?
   LNONCOLLINEAR =      F non collinear calculations
   LSORBIT =      F    spin-orbit coupling
   INIWAV =      1    electr: 0-lowe 1-rand  2-diag
   LASPH  =      F    aspherical Exc in radial PAW
   METAGGA=      F    non-selfconsistent MetaGGA calc.

 Electronic Relaxation 1
   ENCUT  =  750.0 eV  55.12 Ry    7.42 a.u.  16.08 16.08 16.08*2*pi/ulx,y,z
   ENINI  =  750.0     initial cutoff
   ENAUG  =  516.5 eV  augmentation charge cutoff
   NELM   =     60;   NELMIN=  2; NELMDL= -5     # of ELM steps 
   EDIFF  = 0.1E-07   stopping-criterion for ELM
   LREAL  =      F    real-space projection
   LCOMPAT=      F    compatible to vasp.4.4
   LREAL_COMPAT= F    compatible to vasp.4.5.1-3
   GGA_COMPAT  = T    GGA compatible to vasp.4.4-vasp.4.6
   LMAXPAW     = -100 max onsite density
   LMAXMIX     =    2 max onsite mixed and CHGCAR
   VOSKOWN=      0    Vosko Wilk Nusair interpolation
   ROPT   =    0.00000
 Ionic relaxation
   EDIFFG = 0.1E-06   stopping-criterion for IOM
   NSW    =      0    number of steps for IOM
   NBLOCK =      1;   KBLOCK =      1    inner block; outer block 
   IBRION =     -1    ionic relax: 0-MD 1-quasi-New 2-CG
   NFREE  =      0    steps in history (QN), initial steepest desc. (CG)
   ISIF   =      2    stress and relaxation
   IWAVPR =     10    prediction:  0-non 1-charg 2-wave 3-comb
   ISYM   =      2    0-nonsym 1-usesym 2-fastsym
   LCORR  =      T    Harris-Foulkes like correction to forces

   POTIM  =   0.50    time-step for ionic-motion
   TEIN   =    0.0    initial temperature
   TEBEG  =    0.0;   TEEND  =   0.0 temperature during run
   SMASS  =  -3.00    Nose mass-parameter (am)
   estimated Nose-frequenzy (Omega)   =  0.10E-29 period in steps =****** mass=  -0.118E-26a.u.
   NPACO  =    256;   APACO  = 16.0  distance and # of slots for P.C.
   PSTRESS=    0.0 pullay stress

  Mass of Ions in am
   POMASS =  63.55
  Ionic Valenz
   ZVAL   =  11.00
  Atomic Wigner-Seitz radii
   RWIGS  =  -1.00
   NELECT =     352.0000    total number of electrons
   NUPDOWN=      -1.0000    fix difference up-down

 DOS related values:
   EMIN   =  10.00;   EMAX   =-10.00  energy-range for DOS
   ISMEAR =     0;   SIGMA  =   0.01  broadening in eV -4-tet -1-fermi 0-gaus

 Electronic relaxation 2 (details)
   IALGO  =     38    algorithm
   LDIAG  =      T    sub-space diagonalisation
   IMIX   =      4    mixing-type and parameters
     AMIX     =   0.40;   BMIX     =  1.00
     AMIX_MAG =   1.60;   BMIX_MAG =  1.00
     AMIN     =   0.10
     WC   =   100.;   INIMIX=   1;  MIXPRE=   1

 Intra band minimization:
   WEIMIN = 0.0000     energy-eigenvalue tresh-hold
   EBREAK =  0.12E-10  absolut break condition
   DEPER  =   0.30     relativ break condition  

   TIME   =   0.10     timestep for ELM

  volume/ion in A,a.u.               =      11.66        78.72
  Fermi-wavevector in a.u.,eV,Ry     =   1.605401 35.066484  2.577314

 Second variation
   LSECVAR=     F    do a second variation
 
 Write flags
   LWAVE  =      F    write WAVECAR
   LCHARG =      F    write CHGCAR
   LVTOT  =      F    write LOCPOT, local potential
   LELF   =      F    write electronic localiz. function (ELF)
   LORBIT =      0    0 simple, 1 ext, 2 COOP (PROOUT)


 Dipole corrections
   IDIPOL =      0    1-x, 2-y, 3-z
   LDIPOL =      F    correct potential



--------------------------------------------------------------------------------------------------------


 Static calculation
 charge density will be updated during run
 non-spin polarized calculation
 Variant of blocked Davidson
 Davidson routine will perform the subspace rotation
 performe sub-space diagonalisation
    after iterative eigenvector-optimisation
 modified Broyden-mixing scheme, WC =      100.0
 initial mixing is a Kerker type mixing with AMIX =  0.4000 and BMIX =      1.0000
 Hartree-type preconditioning will be used
 using additional bands           36
 reciprocal scheme for non local part
 use partial core corrections
 calculate Harris-corrections to forces 
   (improved forces if not selfconsistent)
 use gradient corrections 
 use of overlap-Matrix (Vanderbilt PP)
 Gauss-broadening in eV      SIGMA  =   0.01


--------------------------------------------------------------------------------------------------------


  energy-cutoff  :      750.00
  volume of cell :      373.26
      direct lattice vectors                 reciprocal lattice vectors
     7.200103307  0.000000000  0.000000000     0.138886896  0.000000000  0.000000000
     0.000000000  7.200103307  0.000000000     0.000000000  0.138886896  0.000000000
     0.000000000  0.000000000  7.200103307     0.000000000  0.000000000  0.138886896

  length of vectors
     7.200103307  7.200103307  7.200103307     0.138886896  0.138886896  0.138886896


 
 k-points in units of 2pi/SCALE and weight: Automatic mesh                          
   0.00000000  0.00000000  0.00000000       0.001
   0.01157391  0.00000000  0.00000000       0.001
   0.02314782  0.00000000  0.00000000       0.001
   0.03472172  0.00000000  0.00000000       0.001
   0.04629563  0.00000000  0.00000000       0.001
   0.05786954  0.00000000  0.00000000       0.001
   0.06944345  0.00000000  0.00000000       0.001
   0.00000000  0.01157391  0.00000000       0.002
   0.01157391  0.01157391  0.00000000       0.005
   0.02314782  0.01157391  0.00000000       0.005
   0.03472172  0.01157391  0.00000000       0.005
   0.04629563  0.01157391  0.00000000       0.005
   0.05786954  0.01157391  0.00000000       0.005
   0.06944345  0.01157391  0.00000000       0.002
   0.00000000  0.02314782  0.00000000       0.002
   0.01157391  0.02314782  0.00000000       0.005
   0.02314782  0.02314782  0.00000000       0.005
   0.03472172  0.02314782  0.00000000       0.005
   0.04629563  0.02314782  0.00000000       0.005
   0.05786954  0.02314782  0.00000000       0.005
   0.06944345  0.02314782  0.00000000       0.002
   0.00000000  0.03472172  0.00000000       0.002
   0.01157391  0.03472172  0.00000000       0.005
   0.02314782  0.03472172  0.00000000       0.005
   0.03472172  0.03472172  0.00000000       0.005
   0.04629563  0.03472172  0.00000000       0.005
   0.05786954  0.03472172  0.00000000       0.005
   0.06944345  0.03472172  0.00000000       0.002
   0.00000000  0.04629563  0.00000000       0.002
   0.01157391  0.04629563  0.00000000       0.005
   0.02314782  0.04629563  0.00000000       0.005
   0.03472172  0.04629563  0.00000000       0.005
   0.04629563  0.04629563  0.00000000       0.005
   0.05786954  0.04629563  0.00000000       0.005
   0.06944345  0.04629563  0.00000000       0.002
   0.00000000  0.05786954  0.00000000       0.002
   0.01157391  0.05786954  0.00000000       0.005
   0.02314782  0.05786954  0.00000000       0.005
   0.03472172  0.05786954  0.00000000       0.005
   0.04629563  0.05786954  0.00000000       0.005
   0.05786954  0.05786954  0.00000000       0.005
   0.06944345  0.05786954  0.00000000       0.002
   0.00000000  0.06944345  0.00000000       0.001
   0.01157391  0.06944345  0.00000000       0.002
   0.02314782  0.06944345  0.00000000       0.002
   0.03472172  0.06944345  0.00000000       0.002
   0.04629563  0.06944345  0.00000000       0.002
   0.05786954  0.06944345  0.00000000       0.002
   0.06944345  0.06944345  0.00000000       0.001
   0.00000000  0.01157391  0.01157391       0.002
   0.01157391  0.01157391  0.01157391       0.005
   0.02314782  0.01157391  0.01157391       0.005
   0.03472172  0.01157391  0.01157391       0.005
   0.04629563  0.01157391  0.01157391       0.005
   0.05786954  0.01157391  0.01157391       0.005
   0.06944345  0.01157391  0.01157391       0.002
   0.00000000  0.02314782  0.01157391       0.005
   0.01157391  0.02314782  0.01157391       0.009
   0.02314782  0.02314782  0.01157391       0.009
   0.03472172  0.02314782  0.01157391       0.009
   0.04629563  0.02314782  0.01157391       0.009
   0.05786954  0.02314782  0.01157391       0.009
   0.06944345  0.02314782  0.01157391       0.005
   0.00000000  0.03472172  0.01157391       0.005
   0.01157391  0.03472172  0.01157391       0.009
   0.02314782  0.03472172  0.01157391       0.009
   0.03472172  0.03472172  0.01157391       0.009
   0.04629563  0.03472172  0.01157391       0.009
   0.05786954  0.03472172  0.01157391       0.009
   0.06944345  0.03472172  0.01157391       0.005
   0.00000000  0.04629563  0.01157391       0.005
   0.01157391  0.04629563  0.01157391       0.009
   0.02314782  0.04629563  0.01157391       0.009
   0.03472172  0.04629563  0.01157391       0.009
   0.04629563  0.04629563  0.01157391       0.009
   0.05786954  0.04629563  0.01157391       0.009
   0.06944345  0.04629563  0.01157391       0.005
   0.00000000  0.05786954  0.01157391       0.005
   0.01157391  0.05786954  0.01157391       0.009
   0.02314782  0.05786954  0.01157391       0.009
   0.03472172  0.05786954  0.01157391       0.009
   0.04629563  0.05786954  0.01157391       0.009
   0.05786954  0.05786954  0.01157391       0.009
   0.06944345  0.05786954  0.01157391       0.005
   0.00000000  0.06944345  0.01157391       0.002
   0.01157391  0.06944345  0.01157391       0.005
   0.02314782  0.06944345  0.01157391       0.005
   0.03472172  0.06944345  0.01157391       0.005
   0.04629563  0.06944345  0.01157391       0.005
   0.05786954  0.06944345  0.01157391       0.005
   0.06944345  0.06944345  0.01157391       0.002
   0.00000000  0.02314782  0.02314782       0.002
   0.01157391  0.02314782  0.02314782       0.005
   0.02314782  0.02314782  0.02314782       0.005
   0.03472172  0.02314782  0.02314782       0.005
   0.04629563  0.02314782  0.02314782       0.005
   0.05786954  0.02314782  0.02314782       0.005
   0.06944345  0.02314782  0.02314782       0.002
   0.00000000  0.03472172  0.02314782       0.005
   0.01157391  0.03472172  0.02314782       0.009
   0.02314782  0.03472172  0.02314782       0.009
   0.03472172  0.03472172  0.02314782       0.009
   0.04629563  0.03472172  0.02314782       0.009
   0.05786954  0.03472172  0.02314782       0.009
   0.06944345  0.03472172  0.02314782       0.005
   0.00000000  0.04629563  0.02314782       0.005
   0.01157391  0.04629563  0.02314782       0.009
   0.02314782  0.04629563  0.02314782       0.009
   0.03472172  0.04629563  0.02314782       0.009
   0.04629563  0.04629563  0.02314782       0.009
   0.05786954  0.04629563  0.02314782       0.009
   0.06944345  0.04629563  0.02314782       0.005
   0.00000000  0.05786954  0.02314782       0.005
   0.01157391  0.05786954  0.02314782       0.009
   0.02314782  0.05786954  0.02314782       0.009
   0.03472172  0.05786954  0.02314782       0.009
   0.04629563  0.05786954  0.02314782       0.009
   0.05786954  0.05786954  0.02314782       0.009
   0.06944345  0.05786954  0.02314782       0.005
   0.00000000  0.06944345  0.02314782       0.002
   0.01157391  0.06944345  0.02314782       0.005
   0.02314782  0.06944345  0.02314782       0.005
   0.03472172  0.06944345  0.02314782       0.005
   0.04629563  0.06944345  0.02314782       0.005
   0.05786954  0.06944345  0.02314782       0.005
   0.06944345  0.06944345  0.02314782       0.002
   0.00000000  0.03472172  0.03472172       0.002
   0.01157391  0.03472172  0.03472172       0.005
   0.02314782  0.03472172  0.03472172       0.005
   0.03472172  0.03472172  0.03472172       0.005
   0.04629563  0.03472172  0.03472172       0.005
   0.05786954  0.03472172  0.03472172       0.005
   0.06944345  0.03472172  0.03472172       0.002
   0.00000000  0.04629563  0.03472172       0.005
   0.01157391  0.04629563  0.03472172       0.009
   0.02314782  0.04629563  0.03472172       0.009
   0.03472172  0.04629563  0.03472172       0.009
   0.04629563  0.04629563  0.03472172       0.009
   0.05786954  0.04629563  0.03472172       0.009
   0.06944345  0.04629563  0.03472172       0.005
   0.00000000  0.05786954  0.03472172       0.005
   0.01157391  0.05786954  0.03472172       0.009
   0.02314782  0.05786954  0.03472172       0.009
   0.03472172  0.05786954  0.03472172       0.009
   0.04629563  0.05786954  0.03472172       0.009
   0.05786954  0.05786954  0.03472172       0.009
   0.06944345  0.05786954  0.03472172       0.005
   0.00000000  0.06944345  0.03472172       0.002
   0.01157391  0.06944345  0.03472172       0.005
   0.02314782  0.06944345  0.03472172       0.005
   0.03472172  0.06944345  0.03472172       0.005
   0.04629563  0.06944345  0.03472172       0.005
   0.05786954  0.06944345  0.03472172       0.005
   0.06944345  0.06944345  0.03472172       0.002
   0.00000000  0.04629563  0.04629563       0.002
   0.01157391  0.04629563  0.04629563       0.005
   0.02314782  0.04629563  0.04629563       0.005
   0.03472172  0.04629563  0.04629563       0.005
   0.04629563  0.04629563  0.04629563       0.005
   0.05786954  0.04629563  0.04629563       0.005
   0.06944345  0.04629563  0.04629563       0.002
   0.00000000  0.05786954  0.04629563       0.005
   0.01157391  0.05786954  0.04629563       0.009
   0.02314782  0.05786954  0.04629563       0.009
   0.03472172  0.05786954  0.04629563       0.009
   0.04629563  0.05786954  0.04629563       0.009
   0.05786954  0.05786954  0.04629563       0.009
   0.06944345  0.05786954  0.04629563       0.005
   0.00000000  0.06944345  0.04629563       0.002
   0.01157391  0.06944345  0.04629563       0.005
   0.02314782  0.06944345  0.04629563       0.005
   0.03472172  0.06944345  0.04629563       0.005
   0.04629563  0.06944345  0.04629563       0.005
   0.05786954  0.06944345  0.04629563       0.005
   0.06944345  0.06944345  0.04629563       0.002
   0.00000000  0.05786954  0.05786954       0.002
   0.01157391  0.05786954  0.05786954       0.005
   0.02314782  0.05786954  0.05786954       0.005
   0.03472172  0.05786954  0.05786954       0.005
   0.04629563  0.05786954  0.05786954       0.005
   0.05786954  0.05786954  0.05786954       0.005
   0.06944345  0.05786954  0.05786954       0.002
   0.00000000  0.06944345  0.05786954       0.002
   0.01157391  0.06944345  0.05786954       0.005
   0.02314782  0.06944345  0.05786954       0.005
   0.03472172  0.06944345  0.05786954       0.005
   0.04629563  0.06944345  0.05786954       0.005
   0.05786954  0.06944345  0.05786954       0.005
   0.06944345  0.06944345  0.05786954       0.002
   0.00000000  0.06944345  0.06944345       0.001
   0.01157391  0.06944345  0.06944345       0.001
   0.02314782  0.06944345  0.06944345       0.001
   0.03472172  0.06944345  0.06944345       0.001
   0.04629563  0.06944345  0.06944345       0.001
   0.05786954  0.06944345  0.06944345       0.001
   0.06944345  0.06944345  0.06944345       0.001
 
 k-points in reciprocal lattice and weights: Automatic mesh                          
   0.00000000  0.00000000  0.00000000       0.001
   0.08333333  0.00000000  0.00000000       0.001
   0.16666667  0.00000000  0.00000000       0.001
   0.25000000  0.00000000  0.00000000       0.001
   0.33333333  0.00000000  0.00000000       0.001
   0.41666667  0.00000000  0.00000000       0.001
   0.50000000  0.00000000  0.00000000       0.001
   0.00000000  0.08333333  0.00000000       0.002
   0.08333333  0.08333333  0.00000000       0.005
   0.16666667  0.08333333  0.00000000       0.005
   0.25000000  0.08333333  0.00000000       0.005
   0.33333333  0.08333333  0.00000000       0.005
   0.41666667  0.08333333  0.00000000       0.005
   0.50000000  0.08333333  0.00000000       0.002
   0.00000000  0.16666667  0.00000000       0.002
   0.08333333  0.16666667  0.00000000       0.005
   0.16666667  0.16666667  0.00000000       0.005
   0.25000000  0.16666667  0.00000000       0.005
   0.33333333  0.16666667  0.00000000       0.005
   0.41666667  0.16666667  0.00000000       0.005
   0.50000000  0.16666667  0.00000000       0.002
   0.00000000  0.25000000  0.00000000       0.002
   0.08333333  0.25000000  0.00000000       0.005
   0.16666667  0.25000000  0.00000000       0.005
   0.25000000  0.25000000  0.00000000       0.005
   0.33333333  0.25000000  0.00000000       0.005
   0.41666667  0.25000000  0.00000000       0.005
   0.50000000  0.25000000  0.00000000       0.002
   0.00000000  0.33333333  0.00000000       0.002
   0.08333333  0.33333333  0.00000000       0.005
   0.16666667  0.33333333  0.00000000       0.005
   0.25000000  0.33333333  0.00000000       0.005
   0.33333333  0.33333333  0.00000000       0.005
   0.41666667  0.33333333  0.00000000       0.005
   0.50000000  0.33333333  0.00000000       0.002
   0.00000000  0.41666667  0.00000000       0.002
   0.08333333  0.41666667  0.00000000       0.005
   0.16666667  0.41666667  0.00000000       0.005
   0.25000000  0.41666667  0.00000000       0.005
   0.33333333  0.41666667  0.00000000       0.005
   0.41666667  0.41666667  0.00000000       0.005
   0.50000000  0.41666667  0.00000000       0.002
   0.00000000  0.50000000  0.00000000       0.001
   0.08333333  0.50000000  0.00000000       0.002
   0.16666667  0.50000000  0.00000000       0.002
   0.25000000  0.50000000  0.00000000       0.002
   0.33333333  0.50000000  0.00000000       0.002
   0.41666667  0.50000000  0.00000000       0.002
   0.50000000  0.50000000  0.00000000       0.001
   0.00000000  0.08333333  0.08333333       0.002
   0.08333333  0.08333333  0.08333333       0.005
   0.16666667  0.08333333  0.08333333       0.005
   0.25000000  0.08333333  0.08333333       0.005
   0.33333333  0.08333333  0.08333333       0.005
   0.41666667  0.08333333  0.08333333       0.005
   0.50000000  0.08333333  0.08333333       0.002
   0.00000000  0.16666667  0.08333333       0.005
   0.08333333  0.16666667  0.08333333       0.009
   0.16666667  0.16666667  0.08333333       0.009
   0.25000000  0.16666667  0.08333333       0.009
   0.33333333  0.16666667  0.08333333       0.009
   0.41666667  0.16666667  0.08333333       0.009
   0.50000000  0.16666667  0.08333333       0.005
   0.00000000  0.25000000  0.08333333       0.005
   0.08333333  0.25000000  0.08333333       0.009
   0.16666667  0.25000000  0.08333333       0.009
   0.25000000  0.25000000  0.08333333       0.009
   0.33333333  0.25000000  0.08333333       0.009
   0.41666667  0.25000000  0.08333333       0.009
   0.50000000  0.25000000  0.08333333       0.005
   0.00000000  0.33333333  0.08333333       0.005
   0.08333333  0.33333333  0.08333333       0.009
   0.16666667  0.33333333  0.08333333       0.009
   0.25000000  0.33333333  0.08333333       0.009
   0.33333333  0.33333333  0.08333333       0.009
   0.41666667  0.33333333  0.08333333       0.009
   0.50000000  0.33333333  0.08333333       0.005
   0.00000000  0.41666667  0.08333333       0.005
   0.08333333  0.41666667  0.08333333       0.009
   0.16666667  0.41666667  0.08333333       0.009
   0.25000000  0.41666667  0.08333333       0.009
   0.33333333  0.41666667  0.08333333       0.009
   0.41666667  0.41666667  0.08333333       0.009
   0.50000000  0.41666667  0.08333333       0.005
   0.00000000  0.50000000  0.08333333       0.002
   0.08333333  0.50000000  0.08333333       0.005
   0.16666667  0.50000000  0.08333333       0.005
   0.25000000  0.50000000  0.08333333       0.005
   0.33333333  0.50000000  0.08333333       0.005
   0.41666667  0.50000000  0.08333333       0.005
   0.50000000  0.50000000  0.08333333       0.002
   0.00000000  0.16666667  0.16666667       0.002
   0.08333333  0.16666667  0.16666667       0.005
   0.16666667  0.16666667  0.16666667       0.005
   0.25000000  0.16666667  0.16666667       0.005
   0.33333333  0.16666667  0.16666667       0.005
   0.41666667  0.16666667  0.16666667       0.005
   0.50000000  0.16666667  0.16666667       0.002
   0.00000000  0.25000000  0.16666667       0.005
   0.08333333  0.25000000  0.16666667       0.009
   0.16666667  0.25000000  0.16666667       0.009
   0.25000000  0.25000000  0.16666667       0.009
   0.33333333  0.25000000  0.16666667       0.009
   0.41666667  0.25000000  0.16666667       0.009
   0.50000000  0.25000000  0.16666667       0.005
   0.00000000  0.33333333  0.16666667       0.005
   0.08333333  0.33333333  0.16666667       0.009
   0.16666667  0.33333333  0.16666667       0.009
   0.25000000  0.33333333  0.16666667       0.009
   0.33333333  0.33333333  0.16666667       0.009
   0.41666667  0.33333333  0.16666667       0.009
   0.50000000  0.33333333  0.16666667       0.005
   0.00000000  0.41666667  0.16666667       0.005
   0.08333333  0.41666667  0.16666667       0.009
   0.16666667  0.41666667  0.16666667       0.009
   0.25000000  0.41666667  0.16666667       0.009
   0.33333333  0.41666667  0.16666667       0.009
   0.41666667  0.41666667  0.16666667       0.009
   0.50000000  0.41666667  0.16666667       0.005
   0.00000000  0.50000000  0.16666667       0.002
   0.08333333  0.50000000  0.16666667       0.005
   0.16666667  0.50000000  0.16666667       0.005
   0.25000000  0.50000000  0.16666667       0.005
   0.33333333  0.50000000  0.16666667       0.005
   0.41666667  0.50000000  0.16666667       0.005
   0.50000000  0.50000000  0.16666667       0.002
   0.00000000  0.25000000  0.25000000       0.002
   0.08333333  0.25000000  0.25000000       0.005
   0.16666667  0.25000000  0.25000000       0.005
   0.25000000  0.25000000  0.25000000       0.005
   0.33333333  0.25000000  0.25000000       0.005
   0.41666667  0.25000000  0.25000000       0.005
   0.50000000  0.25000000  0.25000000       0.002
   0.00000000  0.33333333  0.25000000       0.005
   0.08333333  0.33333333  0.25000000       0.009
   0.16666667  0.33333333  0.25000000       0.009
   0.25000000  0.33333333  0.25000000       0.009
   0.33333333  0.33333333  0.25000000       0.009
   0.41666667  0.33333333  0.25000000       0.009
   0.50000000  0.33333333  0.25000000       0.005
   0.00000000  0.41666667  0.25000000       0.005
   0.08333333  0.41666667  0.25000000       0.009
   0.16666667  0.41666667  0.25000000       0.009
   0.25000000  0.41666667  0.25000000       0.009
   0.33333333  0.41666667  0.25000000       0.009
   0.41666667  0.41666667  0.25000000       0.009
   0.50000000  0.41666667  0.25000000       0.005
   0.00000000  0.50000000  0.25000000       0.002
   0.08333333  0.50000000  0.25000000       0.005
   0.16666667  0.50000000  0.25000000       0.005
   0.25000000  0.50000000  0.25000000       0.005
   0.33333333  0.50000000  0.25000000       0.005
   0.41666667  0.50000000  0.25000000       0.005
   0.50000000  0.50000000  0.25000000       0.002
   0.00000000  0.33333333  0.33333333       0.002
   0.08333333  0.33333333  0.33333333       0.005
   0.16666667  0.33333333  0.33333333       0.005
   0.25000000  0.33333333  0.33333333       0.005
   0.33333333  0.33333333  0.33333333       0.005
   0.41666667  0.33333333  0.33333333       0.005
   0.50000000  0.33333333  0.33333333       0.002
   0.00000000  0.41666667  0.33333333       0.005
   0.08333333  0.41666667  0.33333333       0.009
   0.16666667  0.41666667  0.33333333       0.009
   0.25000000  0.41666667  0.33333333       0.009
   0.33333333  0.41666667  0.33333333       0.009
   0.41666667  0.41666667  0.33333333       0.009
   0.50000000  0.41666667  0.33333333       0.005
   0.00000000  0.50000000  0.33333333       0.002
   0.08333333  0.50000000  0.33333333       0.005
   0.16666667  0.50000000  0.33333333       0.005
   0.25000000  0.50000000  0.33333333       0.005
   0.33333333  0.50000000  0.33333333       0.005
   0.41666667  0.50000000  0.33333333       0.005
   0.50000000  0.50000000  0.33333333       0.002
   0.00000000  0.41666667  0.41666667       0.002
   0.08333333  0.41666667  0.41666667       0.005
   0.16666667  0.41666667  0.41666667       0.005
   0.25000000  0.41666667  0.41666667       0.005
   0.33333333  0.41666667  0.41666667       0.005
   0.41666667  0.41666667  0.41666667       0.005
   0.50000000  0.41666667  0.41666667       0.002
   0.00000000  0.50000000  0.41666667       0.002
   0.08333333  0.50000000  0.41666667       0.005
   0.16666667  0.50000000  0.41666667       0.005
   0.25000000  0.50000000  0.41666667       0.005
   0.33333333  0.50000000  0.41666667       0.005
   0.41666667  0.50000000  0.41666667       0.005
   0.50000000  0.50000000  0.41666667       0.002
   0.00000000  0.50000000  0.50000000       0.001
   0.08333333  0.50000000  0.50000000       0.001
   0.16666667  0.50000000  0.50000000       0.001
   0.25000000  0.50000000  0.50000000       0.001
   0.33333333  0.50000000  0.50000000       0.001
   0.41666667  0.50000000  0.50000000       0.001
   0.50000000  0.50000000  0.50000000       0.001
 
 position of ions in fractional coordinates (direct lattice) 
   0.00138887  0.00000000  0.00000000
   0.50000000  0.00000000  0.00000000
   0.00000000  0.50000000  0.00000000
   0.50000000  0.50000000  0.00000000
   0.00000000  0.00000000  0.50000000
   0.50000000  0.00000000  0.50000000
   0.00000000  0.50000000  0.50000000
   0.50000000  0.50000000  0.50000000
   0.25000000  0.25000000  0.00000000
   0.75000000  0.25000000  0.00000000
   0.25000000  0.75000000  0.00000000
   0.75000000  0.75000000  0.00000000
   0.25000000  0.25000000  0.50000000
   0.75000000  0.25000000  0.50000000
   0.25000000  0.75000000  0.50000000
   0.75000000  0.75000000  0.50000000
   0.25000000  0.00000000  0.25000000
   0.75000000  0.00000000  0.25000000
   0.25000000  0.50000000  0.25000000
   0.75000000  0.50000000  0.25000000
   0.25000000  0.00000000  0.75000000
   0.75000000  0.00000000  0.75000000
   0.25000000  0.50000000  0.75000000
   0.75000000  0.50000000  0.75000000
   0.00000000  0.25000000  0.25000000
   0.50000000  0.25000000  0.25000000
   0.00000000  0.75000000  0.25000000
   0.50000000  0.75000000  0.25000000
   0.00000000  0.25000000  0.75000000
   0.50000000  0.25000000  0.75000000
   0.00000000  0.75000000  0.75000000
   0.50000000  0.75000000  0.75000000
 
 position of ions in cartesian coordinates  (Angst):
   0.01000000  0.00000000  0.00000000
   3.60005165  0.00000000  0.00000000
   0.00000000  3.60005165  0.00000000
   3.60005165  3.60005165  0.00000000
   0.00000000  0.00000000  3.60005165
   3.60005165  0.00000000  3.60005165
   0.00000000  3.60005165  3.60005165
   3.60005165  3.60005165  3.60005165
   1.80002583  1.80002583  0.00000000
   5.40007748  1.80002583  0.00000000
   1.80002583  5.40007748  0.00000000
   5.40007748  5.40007748  0.00000000
   1.80002583  1.80002583  3.60005165
   5.40007748  1.80002583  3.60005165
   1.80002583  5.40007748  3.60005165
   5.40007748  5.40007748  3.60005165
   1.80002583  0.00000000  1.80002583
   5.40007748  0.00000000  1.80002583
   1.80002583  3.60005165  1.80002583
   5.40007748  3.60005165  1.80002583
   1.80002583  0.00000000  5.40007748
   5.40007748  0.00000000  5.40007748
   1.80002583  3.60005165  5.40007748
   5.40007748  3.60005165  5.40007748
   0.00000000  1.80002583  1.80002583
   3.60005165  1.80002583  1.80002583
   0.00000000  5.40007748  1.80002583
   3.60005165  5.40007748  1.80002583
   0.00000000  1.80002583  5.40007748
   3.60005165  1.80002583  5.40007748
   0.00000000  5.40007748  5.40007748
   3.60005165  5.40007748  5.40007748
 


--------------------------------------------------------------------------------------------------------


 k-point  1 :  0.00000.00000.0000  plane waves:  17365
 k-point  2 :  0.08330.00000.0000  plane waves:  17348
 k-point  3 :  0.16670.00000.0000  plane waves:  17364
 k-point  4 :  0.25000.00000.0000  plane waves:  17380
 k-point  5 :  0.33330.00000.0000  plane waves:  17400
 k-point  6 :  0.41670.00000.0000  plane waves:  17396
 k-point  7 :  0.50000.00000.0000  plane waves:  17416
 k-point  8 :  0.00000.08330.0000  plane waves:  17348
 k-point  9 :  0.08330.08330.0000  plane waves:  17365
 k-point 10 :  0.16670.08330.0000  plane waves:  17381
 k-point 11 :  0.25000.08330.0000  plane waves:  17394
 k-point 12 :  0.33330.08330.0000  plane waves:  17380
 k-point 13 :  0.41670.08330.0000  plane waves:  17380
 k-point 14 :  0.50000.08330.0000  plane waves:  17396
 k-point 15 :  0.00000.16670.0000  plane waves:  17364
 k-point 16 :  0.08330.16670.0000  plane waves:  17381
 k-point 17 :  0.16670.16670.0000  plane waves:  17411
 k-point 18 :  0.25000.16670.0000  plane waves:  17407
 k-point 19 :  0.33330.16670.0000  plane waves:  17415
 k-point 20 :  0.41670.16670.0000  plane waves:  17390
 k-point 21 :  0.50000.16670.0000  plane waves:  17398
 k-point 22 :  0.00000.25000.0000  plane waves:  17380
 k-point 23 :  0.08330.25000.0000  plane waves:  17394
 k-point 24 :  0.16670.25000.0000  plane waves:  17407
 k-point 25 :  0.25000.25000.0000  plane waves:  17409
 k-point 26 :  0.33330.25000.0000  plane waves:  17399
 k-point 27 :  0.41670.25000.0000  plane waves:  17414
 k-point 28 :  0.50000.25000.0000  plane waves:  17420
 k-point 29 :  0.00000.33330.0000  plane waves:  17400
 k-point 30 :  0.08330.33330.0000  plane waves:  17380
 k-point 31 :  0.16670.33330.0000  plane waves:  17415
 k-point 32 :  0.25000.33330.0000  plane waves:  17399
 k-point 33 :  0.33330.33330.0000  plane waves:  17421
 k-point 34 :  0.41670.33330.0000  plane waves:  17427
 k-point 35 :  0.50000.33330.0000  plane waves:  17412
 k-point 36 :  0.00000.41670.0000  plane waves:  17396
 k-point 37 :  0.08330.41670.0000  plane waves:  17380
 k-point 38 :  0.16670.41670.0000  plane waves:  17390
 k-point 39 :  0.25000.41670.0000  plane waves:  17414
 k-point 40 :  0.33330.41670.0000  plane waves:  17427
 k-point 41 :  0.41670.41670.0000  plane waves:  17408
 k-point 42 :  0.50000.41670.0000  plane waves:  17422
 k-point 43 :  0.00000.50000.0000  plane waves:  17416
 k-point 44 :  0.08330.50000.0000  plane waves:  17396
 k-point 45 :  0.16670.50000.0000  plane waves:  17398
 k-point 46 :  0.25000.50000.0000  plane waves:  17420
 k-point 47 :  0.33330.50000.0000  plane waves:  17412
 k-point 48 :  0.41670.50000.0000  plane waves:  17422
 k-point 49 :  0.50000.50000.0000  plane waves:  17340
 k-point 50 :  0.00000.08330.0833  plane waves:  17365
 k-point 51 :  0.08330.08330.0833  plane waves:  17380
 k-point 52 :  0.16670.08330.0833  plane waves:  17375
 k-point 53 :  0.25000.08330.0833  plane waves:  17397
 k-point 54 :  0.33330.08330.0833  plane waves:  17388
 k-point 55 :  0.41670.08330.0833  plane waves:  17401
 k-point 56 :  0.50000.08330.0833  plane waves:  17394
 k-point 57 :  0.00000.16670.0833  plane waves:  17381
 k-point 58 :  0.08330.16670.0833  plane waves:  17375
 k-point 59 :  0.16670.16670.0833  plane waves:  17385
 k-point 60 :  0.25000.16670.0833  plane waves:  17405
 k-point 61 :  0.33330.16670.0833  plane waves:  17418
 k-point 62 :  0.41670.16670.0833  plane waves:  17409
 k-point 63 :  0.50000.16670.0833  plane waves:  17420
 k-point 64 :  0.00000.25000.0833  plane waves:  17394
 k-point 65 :  0.08330.25000.0833  plane waves:  17397
 k-point 66 :  0.16670.25000.0833  plane waves:  17405
 k-point 67 :  0.25000.25000.0833  plane waves:  17415
 k-point 68 :  0.33330.25000.0833  plane waves:  17399
 k-point 69 :  0.41670.25000.0833  plane waves:  17406
 k-point 70 :  0.50000.25000.0833  plane waves:  17414
 k-point 71 :  0.00000.33330.0833  plane waves:  17380
 k-point 72 :  0.08330.33330.0833  plane waves:  17388
 k-point 73 :  0.16670.33330.0833  plane waves:  17418
 k-point 74 :  0.25000.33330.0833  plane waves:  17399
 k-point 75 :  0.33330.33330.0833  plane waves:  17407
 k-point 76 :  0.41670.33330.0833  plane waves:  17412
 k-point 77 :  0.50000.33330.0833  plane waves:  17404
 k-point 78 :  0.00000.41670.0833  plane waves:  17380
 k-point 79 :  0.08330.41670.0833  plane waves:  17401
 k-point 80 :  0.16670.41670.0833  plane waves:  17409
 k-point 81 :  0.25000.41670.0833  plane waves:  17406
 k-point 82 :  0.33330.41670.0833  plane waves:  17412
 k-point 83 :  0.41670.41670.0833  plane waves:  17405
 k-point 84 :  0.50000.41670.0833  plane waves:  17418
 k-point 85 :  0.00000.50000.0833  plane waves:  17396
 k-point 86 :  0.08330.50000.0833  plane waves:  17394
 k-point 87 :  0.16670.50000.0833  plane waves:  17420
 k-point 88 :  0.25000.50000.0833  plane waves:  17414
 k-point 89 :  0.33330.50000.0833  plane waves:  17404
 k-point 90 :  0.41670.50000.0833  plane waves:  17418
 k-point 91 :  0.50000.50000.0833  plane waves:  17412
 k-point 92 :  0.00000.16670.1667  plane waves:  17411
 k-point 93 :  0.08330.16670.1667  plane waves:  17385
 k-point 94 :  0.16670.16670.1667  plane waves:  17398
 k-point 95 :  0.25000.16670.1667  plane waves:  17402
 k-point 96 :  0.33330.16670.1667  plane waves:  17399
 k-point 97 :  0.41670.16670.1667  plane waves:  17406
 k-point 98 :  0.50000.16670.1667  plane waves:  17446
 k-point 99 :  0.00000.25000.1667  plane waves:  17407
 k-point ** :  0.08330.25000.1667  plane waves:  17405
 k-point ** :  0.16670.25000.1667  plane waves:  17402
 k-point ** :  0.25000.25000.1667  plane waves:  17416
 k-point ** :  0.33330.25000.1667  plane waves:  17405
 k-point ** :  0.41670.25000.1667  plane waves:  17416
 k-point ** :  0.50000.25000.1667  plane waves:  17412
 k-point ** :  0.00000.33330.1667  plane waves:  17415
 k-point ** :  0.08330.33330.1667  plane waves:  17418
 k-point ** :  0.16670.33330.1667  plane waves:  17399
 k-point ** :  0.25000.33330.1667  plane waves:  17405
 k-point ** :  0.33330.33330.1667  plane waves:  17400
 k-point ** :  0.41670.33330.1667  plane waves:  17418
 k-point ** :  0.50000.33330.1667  plane waves:  17408
 k-point ** :  0.00000.41670.1667  plane waves:  17390
 k-point ** :  0.08330.41670.1667  plane waves:  17409
 k-point ** :  0.16670.41670.1667  plane waves:  17406
 k-point ** :  0.25000.41670.1667  plane waves:  17416
 k-point ** :  0.33330.41670.1667  plane waves:  17418
 k-point ** :  0.41670.41670.1667  plane waves:  17400
 k-point ** :  0.50000.41670.1667  plane waves:  17416
 k-point ** :  0.00000.50000.1667  plane waves:  17398
 k-point ** :  0.08330.50000.1667  plane waves:  17420
 k-point ** :  0.16670.50000.1667  plane waves:  17446
 k-point ** :  0.25000.50000.1667  plane waves:  17412
 k-point ** :  0.33330.50000.1667  plane waves:  17408
 k-point ** :  0.41670.50000.1667  plane waves:  17416
 k-point ** :  0.50000.50000.1667  plane waves:  17392
 k-point ** :  0.00000.25000.2500  plane waves:  17409
 k-point ** :  0.08330.25000.2500  plane waves:  17415
 k-point ** :  0.16670.25000.2500  plane waves:  17416
 k-point ** :  0.25000.25000.2500  plane waves:  17422
 k-point ** :  0.33330.25000.2500  plane waves:  17416
 k-point ** :  0.41670.25000.2500  plane waves:  17425
 k-point ** :  0.50000.25000.2500  plane waves:  17412
 k-point ** :  0.00000.33330.2500  plane waves:  17399
 k-point ** :  0.08330.33330.2500  plane waves:  17399
 k-point ** :  0.16670.33330.2500  plane waves:  17405
 k-point ** :  0.25000.33330.2500  plane waves:  17416
 k-point ** :  0.33330.33330.2500  plane waves:  17431
 k-point ** :  0.41670.33330.2500  plane waves:  17399
 k-point ** :  0.50000.33330.2500  plane waves:  17410
 k-point ** :  0.00000.41670.2500  plane waves:  17414
 k-point ** :  0.08330.41670.2500  plane waves:  17406
 k-point ** :  0.16670.41670.2500  plane waves:  17416
 k-point ** :  0.25000.41670.2500  plane waves:  17425
 k-point ** :  0.33330.41670.2500  plane waves:  17399
 k-point ** :  0.41670.41670.2500  plane waves:  17405
 k-point ** :  0.50000.41670.2500  plane waves:  17404
 k-point ** :  0.00000.50000.2500  plane waves:  17420
 k-point ** :  0.08330.50000.2500  plane waves:  17414
 k-point ** :  0.16670.50000.2500  plane waves:  17412
 k-point ** :  0.25000.50000.2500  plane waves:  17412
 k-point ** :  0.33330.50000.2500  plane waves:  17410
 k-point ** :  0.41670.50000.2500  plane waves:  17404
 k-point ** :  0.50000.50000.2500  plane waves:  17412
 k-point ** :  0.00000.33330.3333  plane waves:  17421
 k-point ** :  0.08330.33330.3333  plane waves:  17407
 k-point ** :  0.16670.33330.3333  plane waves:  17400
 k-point ** :  0.25000.33330.3333  plane waves:  17431
 k-point ** :  0.33330.33330.3333  plane waves:  17409
 k-point ** :  0.41670.33330.3333  plane waves:  17416
 k-point ** :  0.50000.33330.3333  plane waves:  17432
 k-point ** :  0.00000.41670.3333  plane waves:  17427
 k-point ** :  0.08330.41670.3333  plane waves:  17412
 k-point ** :  0.16670.41670.3333  plane waves:  17418
 k-point ** :  0.25000.41670.3333  plane waves:  17399
 k-point ** :  0.33330.41670.3333  plane waves:  17416
 k-point ** :  0.41670.41670.3333  plane waves:  17439
 k-point ** :  0.50000.41670.3333  plane waves:  17436
 k-point ** :  0.00000.50000.3333  plane waves:  17412
 k-point ** :  0.08330.50000.3333  plane waves:  17404
 k-point ** :  0.16670.50000.3333  plane waves:  17408
 k-point ** :  0.25000.50000.3333  plane waves:  17410
 k-point ** :  0.33330.50000.3333  plane waves:  17432
 k-point ** :  0.41670.50000.3333  plane waves:  17436
 k-point ** :  0.50000.50000.3333  plane waves:  17448
 k-point ** :  0.00000.41670.4167  plane waves:  17408
 k-point ** :  0.08330.41670.4167  plane waves:  17405
 k-point ** :  0.16670.41670.4167  plane waves:  17400
 k-point ** :  0.25000.41670.4167  plane waves:  17405
 k-point ** :  0.33330.41670.4167  plane waves:  17439
 k-point ** :  0.41670.41670.4167  plane waves:  17448
 k-point ** :  0.50000.41670.4167  plane waves:  17484
 k-point ** :  0.00000.50000.4167  plane waves:  17422
 k-point ** :  0.08330.50000.4167  plane waves:  17418
 k-point ** :  0.16670.50000.4167  plane waves:  17416
 k-point ** :  0.25000.50000.4167  plane waves:  17404
 k-point ** :  0.33330.50000.4167  plane waves:  17436
 k-point ** :  0.41670.50000.4167  plane waves:  17484
 k-point ** :  0.50000.50000.4167  plane waves:  17472
 k-point ** :  0.00000.50000.5000  plane waves:  17340
 k-point ** :  0.08330.50000.5000  plane waves:  17412
 k-point ** :  0.16670.50000.5000  plane waves:  17392
 k-point ** :  0.25000.50000.5000  plane waves:  17412
 k-point ** :  0.33330.50000.5000  plane waves:  17448
 k-point ** :  0.41670.50000.5000  plane waves:  17472
 k-point ** :  0.50000.50000.5000  plane waves:  17352

 maximum and minimum number of plane-waves per node :  17484 17340

 maximum number of plane-waves:  17484
 maximal index in each direction: 
   IXMAX= 16   IYMAX= 16   IZMAX= 16
   IXMIN=-16   IYMIN=-16   IZMIN=-16

 WARNING: wrap around error must be expected set NGX to  66
 WARNING: wrap around error must be expected set NGY to  66
 WARNING: wrap around error must be expected set NGZ to  66

 parallel 3dFFT wavefunction:
    minimum data exchange during FFTs selected (reduces bandwidth)
 parallel 3dFFT charge:
    minimum data exchange during FFTs selected (reduces bandwidth)

 For storing wavefunctions ******* MBYTES are necessary
 For predicting wavefunctions  127.94 MBYTES are necessary
Broyden mixing: mesh for mixing (old mesh)
   NGX = 33   NGY = 33   NGZ = 33
  (NGX  =128   NGY  =128   NGZ  =128)
 gives a total of  35937 points
 initial charge density was supplied:
 charge density of overlapping atoms calculated
 number of electron  352.0000000 magnetization 
 keeping initial charge density in first step


--------------------------------------------------------------------------------------------------------


 Maximum index for augmentation-charges        47809 (set IRDMAX)


--------------------------------------------------------------------------------------------------------


 First call to EWALD:  gamma=   0.246
 Maximum number of real-space cells 3x 3x 3
 Maximum number of reciprocal cells 3x 3x 3

    FEWALD:  VPU time    0.01: CPU time    0.01


----------------------------------------- Iteration    1(   1)  ---------------------------------------


    POTLOK:  VPU time    0.84: CPU time    0.85
    SETDIJ:  VPU time    1.88: CPU time    1.88
    EDDAV :  VPU time 5656.38: CPU time 5667.62
    DOS   :  VPU time    0.00: CPU time   -0.00
    ------------------------------------------
      LOOP:  VPU time 5659.46: CPU time 5670.70

 eigenvalue-minimisations  : 83112
 total energy-change (2. order) : 0.4023713E+04  (-0.1877386E+05)
 number of electron  352.0000000 magnetization 
 augmentation part   352.0000000 magnetization 

 Free energy of the ion-electron system (eV)
  ---------------------------------------------------
  alpha Z        PSCENC =      3504.99324175
  Ewald energy   TEWEN  =    -35504.11159512
  -1/2 Hartree   DENC   =    -10361.32923387
  -V(xc)+E(xc)   XCENC  =      1406.00846799
  PAW double counting   =     34625.67335558   -39234.46421604
  entropy T*S    EENTRO =        -0.00032611
  eigenvalues    EBANDS =      5075.60311383
  atomic energy  EATOM  =     44511.34040493
  ---------------------------------------------------
  free energy    TOTEN  =      4023.71321293 eV

  energy without entropy =     4023.71353904  energy(sigma->0) =     4023.71337598


--------------------------------------------------------------------------------------------------------




----------------------------------------- Iteration    1(   2)  ---------------------------------------


    EDDAV :  VPU time 5613.35: CPU time 5624.79
    DOS   :  VPU time    0.00: CPU time   -0.00
    ------------------------------------------
      LOOP:  VPU time 5613.70: CPU time 5626.23

 eigenvalue-minimisations  : 83104
 total energy-change (2. order) :-0.3549978E+04  (-0.3419338E+04)
 number of electron  352.0000000 magnetization 
 augmentation part   352.0000000 magnetization 

 Free energy of the ion-electron system (eV)
  ---------------------------------------------------
  alpha Z        PSCENC =      3504.99324175
  Ewald energy   TEWEN  =    -35504.11159512
  -1/2 Hartree   DENC   =    -10361.32923387
  -V(xc)+E(xc)   XCENC  =      1406.00846799
  PAW double counting   =     34625.67335558   -39234.46421604
  entropy T*S    EENTRO =        -0.00031693
  eigenvalues    EBANDS =      1525.62545962
  atomic energy  EATOM  =     44511.34040493
  ---------------------------------------------------
  free energy    TOTEN  =       473.73556790 eV

  energy without entropy =      473.73588483  energy(sigma->0) =      473.73572636


--------------------------------------------------------------------------------------------------------




----------------------------------------- Iteration    1(   3)  ---------------------------------------


    EDDAV :  VPU time 5314.30: CPU time 5325.29
    DOS   :  VPU time    0.00: CPU time   -0.00
    ------------------------------------------
      LOOP:  VPU time 5314.66: CPU time 5325.68

 eigenvalue-minimisations  : 83104
 total energy-change (2. order) :-0.5806051E+03  (-0.5354461E+03)
 number of electron  352.0000000 magnetization 
 augmentation part   352.0000000 magnetization 

 Free energy of the ion-electron system (eV)
  ---------------------------------------------------
  alpha Z        PSCENC =      3504.99324175
  Ewald energy   TEWEN  =    -35504.11159512
  -1/2 Hartree   DENC   =    -10361.32923387
  -V(xc)+E(xc)   XCENC  =      1406.00846799
  PAW double counting   =     34625.67335558   -39234.46421604
  entropy T*S    EENTRO =        -0.00043068
  eigenvalues    EBANDS =       945.02046088
  atomic energy  EATOM  =     44511.34040493
  ---------------------------------------------------
  free energy    TOTEN  =      -106.86954459 eV

  energy without entropy =     -106.86911391  energy(sigma->0) =     -106.86932925


--------------------------------------------------------------------------------------------------------




----------------------------------------- Iteration    1(   4)  ---------------------------------------


    EDDAV :  VPU time 5731.79: CPU time 5740.79
    DOS   :  VPU time    0.00: CPU time   -0.00
    ------------------------------------------
      LOOP:  VPU time 5732.15: CPU time 5741.16

 eigenvalue-minimisations  : 86644
 total energy-change (2. order) :-0.3953591E+02  (-0.3818597E+02)
 number of electron  352.0000000 magnetization 
 augmentation part   352.0000000 magnetization 

 Free energy of the ion-electron system (eV)
  ---------------------------------------------------
  alpha Z        PSCENC =      3504.99324175
  Ewald energy   TEWEN  =    -35504.11159512
  -1/2 Hartree   DENC   =    -10361.32923387
  -V(xc)+E(xc)   XCENC  =      1406.00846799
  PAW double counting   =     34625.67335558   -39234.46421604
  entropy T*S    EENTRO =        -0.00109409
  eigenvalues    EBANDS =       905.48520953
  atomic energy  EATOM  =     44511.34040493
  ---------------------------------------------------
  free energy    TOTEN  =      -146.40545935 eV

  energy without entropy =     -146.40436526  energy(sigma->0) =     -146.40491231


--------------------------------------------------------------------------------------------------------




----------------------------------------- Iteration    1(   5)  ---------------------------------------


    EDDAV :  VPU time 5982.22: CPU time 5986.22
    DOS   :  VPU time    0.00: CPU time   -0.00
    CHARGE:  VPU time  142.42: CPU time  142.53
    MIXING:  VPU time    0.02: CPU time    0.02
    ------------------------------------------
      LOOP:  VPU time 6125.01: CPU time 6129.14

 eigenvalue-minimisations  : 88308
 total energy-change (2. order) :-0.4756253E+00  (-0.4739167E+00)
 number of electron  352.0000001 magnetization 
 augmentation part   214.1511892 magnetization 

 Broyden mixing:
  rms(total) = 0.39606E+01    rms(broyden)= 0.39606E+01
  rms(prec ) = 0.58626E+01
  weight for this iteration     100.00

 Free energy of the ion-electron system (eV)
  ---------------------------------------------------
  alpha Z        PSCENC =      3504.99324175
  Ewald energy   TEWEN  =    -35504.11159512
  -1/2 Hartree   DENC   =    -10361.32923387
  -V(xc)+E(xc)   XCENC  =      1406.00846799
  PAW double counting   =     34625.67335558   -39234.46421604
  entropy T*S    EENTRO =        -0.00109574
  eigenvalues    EBANDS =       905.00958590
  atomic energy  EATOM  =     44511.34040493
  ---------------------------------------------------
  free energy    TOTEN  =      -146.88108463 eV

  energy without entropy =     -146.87998889  energy(sigma->0) =     -146.88053676


--------------------------------------------------------------------------------------------------------




----------------------------------------- Iteration    1(   6)  ---------------------------------------


    POTLOK:  VPU time    0.83: CPU time    0.83
    SETDIJ:  VPU time    1.60: CPU time    1.60
    EDDAV :  VPU time 6028.02: CPU time 6036.99
    DOS   :  VPU time    0.00: CPU time   -0.00
    CHARGE:  VPU time  136.13: CPU time  136.39
    MIXING:  VPU time    0.02: CPU time    0.02
    ------------------------------------------
      LOOP:  VPU time 6166.95: CPU time 6176.19

 eigenvalue-minimisations  : 89168
 total energy-change (2. order) : 0.1854456E+02  (-0.2706188E+02)
 number of electron  352.0000001 magnetization 
 augmentation part   238.0499624 magnetization 

 Broyden mixing:
  rms(total) = 0.16930E+01    rms(broyden)= 0.16930E+01
  rms(prec ) = 0.23549E+01
  weight for this iteration     100.00

 eigenvalues of (default mixing * dielectric matrix)
  average eigenvalue GAMMA=   0.7028
  0.7028

 Free energy of the ion-electron system (eV)
  ---------------------------------------------------
  alpha Z        PSCENC =      3504.99324175
  Ewald energy   TEWEN  =    -35504.11159512
  -1/2 Hartree   DENC   =     -9572.71295330
  -V(xc)+E(xc)   XCENC  =      1365.89282772
  PAW double counting   =     33926.55434639   -38280.48505469
  entropy T*S    EENTRO =        -0.00063497
  eigenvalues    EBANDS =       -79.80710904
  atomic energy  EATOM  =     44511.34040493
  ---------------------------------------------------
  free energy    TOTEN  =      -128.33652633 eV

  energy without entropy =     -128.33589137  energy(sigma->0) =     -128.33620885


--------------------------------------------------------------------------------------------------------




----------------------------------------- Iteration    1(   7)  ---------------------------------------


    POTLOK:  VPU time    0.82: CPU time    0.83
    SETDIJ:  VPU time    1.64: CPU time    1.64
    EDDAV :  VPU time 6192.42: CPU time 6198.71
    DOS   :  VPU time    0.00: CPU time   -0.00
    CHARGE:  VPU time  146.02: CPU time  146.41
    MIXING:  VPU time    0.02: CPU time    0.02
    ------------------------------------------
      LOOP:  VPU time 6341.29: CPU time 6347.98

 eigenvalue-minimisations  : 92356
 total energy-change (2. order) : 0.9150445E+01  (-0.4580259E+01)
 number of electron  352.0000001 magnetization 
 augmentation part   229.5338465 magnetization 

 Broyden mixing:
  rms(total) = 0.31002E+00    rms(broyden)= 0.31001E+00
  rms(prec ) = 0.47333E+00
  weight for this iteration     100.00

 eigenvalues of (default mixing * dielectric matrix)
  average eigenvalue GAMMA=   1.2996
  1.9382  0.6610

 Free energy of the ion-electron system (eV)
  ---------------------------------------------------
  alpha Z        PSCENC =      3504.99324175
  Ewald energy   TEWEN  =    -35504.11159512
  -1/2 Hartree   DENC   =     -9781.22662402
  -V(xc)+E(xc)   XCENC  =      1376.95898013
  PAW double counting   =     34596.84687127   -39139.48786929
  entropy T*S    EENTRO =        -0.00067555
  eigenvalues    EBANDS =       315.50118419
[...]
     68       0.8353      2.00000
     69       0.8361      2.00000
     70       0.8371      2.00000
     71       0.8371      2.00000
     72       0.8371      2.00000
     73       0.8372      2.00000
     74       0.8372      2.00000
     75       0.8373      2.00000
     76       0.8373      2.00000
     77       0.8374      2.00000
     78       0.8374      2.00000
     79       0.8374      2.00000
     80       0.8374      2.00000
     81       0.8375      2.00000
     82       0.8375      2.00000
     83       0.8376      2.00000
     84       0.8385      2.00000
     85       0.8393      2.00000
     86       0.8397      2.00000
     87       0.8403      2.00000
     88       0.8403      2.00000
     89       0.9685      2.00000
     90       0.9685      2.00000
     91       0.9688      2.00000
     92       0.9691      2.00000
     93       0.9694      2.00000
     94       0.9695      2.00000
     95       0.9696      2.00000
     96       0.9696      2.00000
     97       0.9699      2.00000
     98       0.9699      2.00000
     99       0.9700      2.00000
    100       0.9701      2.00000
    101       0.9705      2.00000
    102       0.9706      2.00000
    103       0.9710      2.00000
    104       0.9710      2.00000
    105       1.4599      2.00000
    106       1.4608      2.00000
    107       1.4608      2.00000
    108       1.4625      2.00000
    109       1.4627      2.00000
    110       1.4627      2.00000
    111       1.4628      2.00000
    112       1.4629      2.00000
    113       1.4631      2.00000
    114       1.4631      2.00000
    115       1.4631      2.00000
    116       1.4631      2.00000
    117       1.4632      2.00000
    118       1.4632      2.00000
    119       1.4632      2.00000
    120       1.4633      2.00000
    121       1.4634      2.00000
    122       1.4636      2.00000
    123       1.4636      2.00000
    124       1.4636      2.00000
    125       1.4638      2.00000
    126       1.4655      2.00000
    127       1.4655      2.00000
    128       1.4664      2.00000
    129       1.7337      2.00000
    130       1.7350      2.00000
    131       1.7351      2.00000
    132       1.7351      2.00000
    133       1.7356      2.00000
    134       1.7356      2.00000
    135       1.7359      2.00000
    136       1.7360      2.00000
    137       1.7361      2.00000
    138       1.7362      2.00000
    139       1.7364      2.00000
    140       1.7364      2.00000
    141       1.7370      2.00000
    142       1.7370      2.00000
    143       1.7370      2.00000
    144       1.7383      2.00000
    145       2.2682      2.00000
    146       2.2682      2.00000
    147       2.2683      2.00000
    148       2.2684      2.00000
    149       2.2685      2.00000
    150       2.2685      2.00000
    151       2.2685      2.00000
    152       2.2686      2.00000
    153       2.2686      2.00000
    154       2.2687      2.00000
    155       2.2687      2.00000
    156       2.2687      2.00000
    157       2.2689      2.00000
    158       2.2690      2.00000
    159       2.2690      2.00000
    160       2.2690      2.00000
    161       2.2691      2.00000
    162       2.2691      2.00000
    163       2.2692      2.00000
    164       2.2692      2.00000
    165       2.2692      2.00000
    166       2.2693      2.00000
    167       2.2694      2.00000
    168       2.2694      2.00000
    169       4.8368      0.00000
    170       4.8388      0.00000
    171       4.8388      0.00000
    172       4.8417      0.00000
    173       4.8423      0.00000
    174       4.8423      0.00000
    175       4.8423      0.00000
    176       4.8423      0.00000
    177       4.8424      0.00000
    178       4.8425      0.00000
    179       4.8425      0.00000
    180       4.8425      0.00000
    181       4.8428      0.00000
    182       4.8428      0.00000
    183       4.8428      0.00000
    184       4.8429      0.00000
    185       4.8429      0.00000
    186       4.8430      0.00000
    187       4.8430      0.00000
    188       4.8430      0.00000
    189       4.8436      0.00000
    190       4.8465      0.00000
    191       4.8465      0.00000
    192       4.8485      0.00000
    193      10.6856      0.00000
    194      10.6860      0.00000
    195      10.6871      0.00000
    196      10.6914      0.00000
    197      10.6916      0.00000
    198      10.6917      0.00000
    199      10.6919      0.00000
    200      10.6921      0.00000
    201      10.6921      0.00000
    202      10.6922      0.00000
    203      10.6923      0.00000
    204      10.6924      0.00000
    205      10.6924      0.00000
    206      10.6925      0.00000
    207      10.6928      0.00000
    208      10.6929      0.00000
    209      10.6930      0.00000
    210      10.6935      0.00000
    211      10.6946      0.00000
    212      10.6950      0.00000


--------------------------------------------------------------------------------------------------------


 soft charge-density along one line, spin component           1
         0         1         2         3         4         5         6         7         8         9
 total charge-density along one line
 
 pseudopotential strength for first ion, spin component:           1
 -6.369   0.000  -0.000   0.000  -0.000  -0.288  -0.000   0.000
  0.000  -6.369  -0.000   0.000  -0.000  -0.000  -0.288   0.000
 -0.000  -0.000  -6.350  -0.000  -0.000   0.000   0.000  -0.296
  0.000   0.000  -0.000  -6.369   0.000  -0.000  -0.000   0.000
 -0.000  -0.000  -0.000   0.000  -6.350   0.000   0.000   0.000
 -0.288  -0.000   0.000  -0.000   0.000   1.697   0.000  -0.000
 -0.000  -0.288   0.000  -0.000   0.000   0.000   1.697  -0.000
  0.000   0.000  -0.296   0.000   0.000  -0.000  -0.000   1.701
 -0.000  -0.000   0.000  -0.288  -0.000   0.000   0.000  -0.000
  0.000   0.000   0.000  -0.000  -0.296  -0.000  -0.000  -0.000
 -0.000  -0.000   0.000  -0.000  -0.000  -0.000  -0.000  -0.000
  0.000   0.000  -0.000   0.000   0.000  -0.000  -0.000   0.000
  0.000  -0.000   0.000  -0.000   0.000   0.000   0.000   0.000
 -0.000  -0.000  -0.000   0.000  -0.000  -0.000   0.000   0.000
 -0.000  -0.000  -0.000  -0.000   0.000  -0.000  -0.000  -0.000
 -0.000  -0.000  -0.000   0.000   0.000  -0.000  -0.000   0.000
  0.000   0.000  -0.000  -0.000   0.000  -0.000  -0.000   0.000
  0.000   0.000  -0.000   0.000   0.000  -0.000  -0.000   0.000
 total augmentation occupancy for first ion, spin component:           1
  1.907  -0.000  -0.003  -0.000  -0.001  -0.007  -0.000   0.001   0.000   0.000   0.006   0.000   0.001   0.000  -0.000  -0.000
 -0.000   1.910  -0.001  -0.001  -0.003  -0.000  -0.010   0.001   0.000   0.001   0.005   0.000   0.000   0.000  -0.000  -0.000
 -0.003  -0.001   1.923   0.000  -0.003   0.001   0.001  -0.057   0.001   0.002   0.014   0.002   0.000  -0.000  -0.000  -0.000
 -0.000  -0.001   0.000   1.913   0.001   0.000   0.000   0.001  -0.014   0.000   0.004  -0.000   0.000   0.001  -0.000  -0.000
 -0.001  -0.003  -0.003   0.001   1.912   0.001   0.001   0.002   0.000  -0.048   0.008   0.001   0.000   0.000   0.000   0.000
 -0.007  -0.000   0.001   0.000   0.001   0.081   0.000   0.001   0.000  -0.000  -0.002   0.000   0.001  -0.000   0.000  -0.000
 -0.000  -0.010   0.001   0.000   0.001   0.000   0.084  -0.002  -0.000   0.001  -0.001   0.001   0.000  -0.000   0.000   0.000
  0.001   0.001  -0.057   0.001   0.002   0.001  -0.002   0.080  -0.001  -0.001  -0.009  -0.000   0.000   0.000  -0.000   0.000
  0.000   0.000   0.001  -0.014   0.000   0.000  -0.000  -0.001   0.087  -0.002   0.000   0.001  -0.000   0.001   0.000   0.000
  0.000   0.001   0.002   0.000  -0.048  -0.000   0.001  -0.001  -0.002   0.078  -0.005  -0.000  -0.000  -0.000   0.001   0.000
  0.006   0.005   0.014   0.004   0.008  -0.002  -0.001  -0.009   0.000  -0.005   1.225  -0.367   0.000  -0.000   0.003   0.000
  0.000   0.000   0.002  -0.000   0.001   0.000   0.001  -0.000   0.001  -0.000  -0.367   0.160   0.000   0.000  -0.001  -0.000
  0.001   0.000   0.000   0.000   0.000   0.001   0.000   0.000  -0.000  -0.000   0.000   0.000   0.197  -0.001   0.001  -0.014
  0.000   0.000  -0.000   0.001   0.000  -0.000  -0.000   0.000   0.001  -0.000  -0.000   0.000  -0.001   0.200  -0.002  -0.000
 -0.000  -0.000  -0.000  -0.000   0.000   0.000   0.000  -0.000   0.000   0.001   0.003  -0.001   0.001  -0.002   0.198  -0.000
 -0.000  -0.000  -0.000  -0.000   0.000  -0.000   0.000   0.000   0.000   0.000   0.000  -0.000  -0.014  -0.000  -0.000   0.001
 -0.000  -0.000  -0.000  -0.000   0.000   0.000   0.000  -0.000  -0.000  -0.000   0.000   0.000  -0.000  -0.014  -0.000   0.000
  0.000  -0.000   0.000   0.000  -0.000  -0.000   0.000   0.000  -0.000  -0.000  -0.000   0.000  -0.000  -0.000  -0.014   0.000


------------------------ aborting loop because EDIFF is reached ----------------------------------------




--------------------------------------------------------------------------------------------------------


    CHARGE:  VPU time  155.60: CPU time  155.64
    FORLOC:  VPU time    0.17: CPU time    0.18
    FORNL :  VPU time  959.60: CPU time  959.81
    STRESS:  VPU time 1980.03: CPU time 1980.67
    FORCOR:  VPU time    0.69: CPU time    0.70
    FORHAR:  VPU time    0.24: CPU time    0.24
    MIXING:  VPU time    0.02: CPU time    0.02


--------------------------------------------------------------------------------------------------------



  FREE ENERGIE OF THE ION-ELECTRON SYSTEM (eV)
  ---------------------------------------------------
  free  energy   TOTEN  =      -118.825016 eV

  energy  without entropy=     -118.824409  energy(sigma->0) =     -118.824713
 

  FORCE on cell =-STRESS in cart. coord.  units (eV/reduce length):
  Direction    X        Y        Z        XY       YZ       ZX
  --------------------------------------------------------------------------------------
  Alpha Z   3504.99   3504.99   3504.99
  Ewald   -11834.79 -11834.73 -11834.73     -0.00     -0.00     -0.00
  Hartree   3217.17   3217.21   3217.21     -0.00     -0.00     -0.00
  E(xc)    -2006.42  -2006.42  -2006.42      0.00     -0.00     -0.00
  Local     3960.46   3960.36   3960.36      0.00      0.00     -0.00
  n-local  -1162.08  -1165.55  -1158.60      1.50      0.92      0.34
  augment   1809.58   1809.58   1809.58     -0.00     -0.00     -0.00
  Kinetic   2521.56   2518.36   2524.76      0.32     -1.06     -2.44
  -------------------------------------------------------------------------------------
  Total       10.48     10.48     10.48     -0.00      0.00      0.00
  in kB       44.97     44.97     44.97     -0.00      0.00      0.00
  external pressure =       44.97 kB  Pullay stress =        0.00 kB


 VOLUME and BASIS-vectors are now :
 -----------------------------------------------------------------------------
  energy-cutoff  :      750.00
  volume of cell :      373.26
      direct lattice vectors                 reciprocal lattice vectors
     7.200103307  0.000000000  0.000000000     0.138886896  0.000000000  0.000000000
     0.000000000  7.200103307  0.000000000     0.000000000  0.138886896  0.000000000
     0.000000000  0.000000000  7.200103307     0.000000000  0.000000000  0.138886896

  length of vectors
     7.200103307  7.200103307  7.200103307     0.138886896  0.138886896  0.138886896


 FORCES acting on ions
    electron-ion (+dipol)            ewald-force                    non-local-force                 convergence-correction
 -----------------------------------------------------------------------------------------------
   0.600E+01 0.445E-13 0.124E-05   -.606E+01 0.105E-12 -.124E-13   -.180E-01 0.000E+00 0.220E-20   0.241E-03 0.449E-13 -.605E-13
   -.158E+01 0.236E-13 -.127E-05   0.160E+01 -.737E-13 -.453E-13   -.203E-01 0.000E+00 -.339E-20   -.250E-03 0.499E-13 -.128E-12
   0.502E+00 0.375E-12 0.115E-09   -.507E+00 -.826E-13 -.102E-12   0.419E-02 0.000E+00 0.191E-20   0.107E-03 -.296E-13 0.195E-13
   -.404E+00 0.599E-11 0.114E-09   0.398E+00 -.400E-13 -.131E-12   0.608E-02 0.136E-19 0.000E+00   -.113E-03 -.267E-13 -.117E-13
   0.502E+00 0.442E-13 0.392E-08   -.507E+00 -.346E-13 -.435E-13   0.419E-02 -.678E-20 -.847E-21   0.107E-03 0.362E-13 0.116E-12
   -.404E+00 0.345E-13 0.392E-08   0.398E+00 -.737E-13 -.684E-13   0.608E-02 0.000E+00 0.000E+00   -.114E-03 0.418E-13 0.161E-12
   0.210E+00 0.375E-12 -.533E-10   -.209E+00 -.862E-13 0.737E-13   -.107E-02 -.102E-19 -.678E-20   -.141E-04 -.220E-13 0.558E-13
   -.195E+00 -.510E-11 -.506E-10   0.196E+00 0.169E-13 0.131E-12   -.795E-03 0.678E-20 0.339E-20   0.967E-05 -.180E-13 0.101E-12
   -.763E+00 -.147E+01 0.293E-09   0.768E+00 0.148E+01 0.329E-13   0.427E-02 0.617E-03 0.000E+00   0.526E-04 -.532E-05 -.744E-13
   -.769E+00 0.145E+01 0.312E-09   0.774E+00 -.146E+01 -.204E-13   0.447E-02 -.783E-03 0.000E+00   -.470E-04 0.128E-03 -.445E-13
   -.763E+00 0.147E+01 0.293E-09   0.768E+00 -.148E+01 -.169E-13   0.427E-02 -.617E-03 0.000E+00   0.526E-04 0.532E-05 -.480E-13
   -.769E+00 -.145E+01 0.290E-09   0.774E+00 0.146E+01 -.737E-13   0.447E-02 0.783E-03 0.000E+00   -.470E-04 -.128E-03 -.983E-15
   -.209E-01 -.121E+00 -.948E-10   0.232E-01 0.121E+00 -.104E-12   -.214E-02 -.345E-03 0.000E+00   0.684E-04 -.384E-04 0.150E-12
   -.235E-01 0.121E+00 -.867E-10   0.259E-01 -.121E+00 0.977E-14   -.213E-02 0.351E-03 0.000E+00   -.638E-04 0.843E-04 0.989E-13
   -.209E-01 0.121E+00 -.948E-10   0.232E-01 -.121E+00 0.169E-13   -.214E-02 0.345E-03 0.000E+00   0.684E-04 0.384E-04 0.111E-12
   -.235E-01 -.121E+00 -.868E-10   0.259E-01 0.121E+00 0.737E-13   -.213E-02 -.351E-03 -.847E-21   -.638E-04 -.843E-04 0.670E-13
   -.763E+00 0.432E-13 -.147E+01   0.768E+00 0.101E-12 0.148E+01   0.427E-02 0.000E+00 0.617E-03   0.525E-04 0.276E-13 -.523E-05
   -.769E+00 0.481E-13 0.145E+01   0.774E+00 0.373E-13 -.146E+01   0.447E-02 -.296E-20 -.783E-03   -.471E-04 0.260E-13 0.128E-03
   -.209E-01 0.379E-12 -.121E+00   0.232E-01 0.195E-13 0.121E+00   -.214E-02 0.000E+00 -.345E-03   0.684E-04 0.133E-13 -.383E-04
   -.235E-01 -.167E-11 0.121E+00   0.259E-01 0.764E-13 -.121E+00   -.213E-02 0.000E+00 0.351E-03   -.638E-04 -.176E-13 0.842E-04
   -.763E+00 0.518E-13 0.147E+01   0.768E+00 0.959E-13 -.148E+01   0.427E-02 0.127E-20 -.617E-03   0.525E-04 0.593E-13 0.523E-05
   -.769E+00 0.657E-13 -.145E+01   0.774E+00 0.391E-13 0.146E+01   0.447E-02 0.000E+00 0.783E-03   -.471E-04 0.630E-13 -.128E-03
   -.209E-01 0.375E-12 0.121E+00   0.232E-01 0.746E-13 -.121E+00   -.214E-02 0.000E+00 0.345E-03   0.684E-04 -.192E-13 0.383E-04
   -.235E-01 -.413E-12 -.121E+00   0.259E-01 0.746E-13 0.121E+00   -.213E-02 0.000E+00 -.351E-03   -.638E-04 -.558E-13 -.842E-04
   0.950E+00 0.412E-02 0.412E-02   -.956E+00 -.417E-02 -.417E-02   0.474E-02 -.439E-05 -.439E-05   0.109E-03 0.361E-04 0.361E-04
   -.532E+00 -.129E-02 -.129E-02   0.537E+00 0.125E-02 0.125E-02   -.430E-02 -.977E-05 -.977E-05   -.115E-03 0.523E-04 0.523E-04
   0.950E+00 -.412E-02 0.412E-02   -.956E+00 0.417E-02 -.417E-02   0.474E-02 0.439E-05 -.439E-05   0.109E-03 -.361E-04 0.361E-04
   -.532E+00 0.129E-02 -.129E-02   0.537E+00 -.125E-02 0.125E-02   -.430E-02 0.977E-05 -.977E-05   -.115E-03 -.523E-04 0.523E-04
   0.950E+00 0.412E-02 -.412E-02   -.956E+00 -.417E-02 0.417E-02   0.474E-02 -.439E-05 0.439E-05   0.109E-03 0.361E-04 -.361E-04
   -.532E+00 -.129E-02 0.129E-02   0.537E+00 0.125E-02 -.125E-02   -.430E-02 -.977E-05 0.977E-05   -.115E-03 0.523E-04 -.523E-04
   0.950E+00 -.412E-02 -.412E-02   -.956E+00 0.417E-02 0.417E-02   0.474E-02 0.439E-05 0.439E-05   0.109E-03 -.361E-04 -.361E-04
   -.532E+00 0.129E-02 0.129E-02   0.537E+00 -.125E-02 -.125E-02   -.430E-02 0.977E-05 0.977E-05   -.115E-03 -.523E-04 -.523E-04
 -----------------------------------------------------------------------------------------------
   0.631E-06 -.235E-11 -.878E-08   0.118E-12 -.250E-12 -.111E-12   0.140E-04 0.491E-19 -.542E-19   -.107E-04 0.384E-12 0.100E-11
 
 
 POSITION                                       TOTAL-FORCE (eV/Angst)
 -----------------------------------------------------------------------------------
      0.01000      0.00000      0.00000        -0.074203      0.000000     -0.000000
      3.60005      0.00000      0.00000         0.000865      0.000000     -0.000000
      0.00000      3.60005      0.00000        -0.000628      0.000000     -0.000000
      3.60005      3.60005      0.00000         0.000232      0.000000     -0.000000
      0.00000      0.00000      3.60005        -0.000628      0.000000     -0.000000
      3.60005      0.00000      3.60005         0.000232      0.000000     -0.000000
      0.00000      3.60005      3.60005         0.000035      0.000000     -0.000000
      3.60005      3.60005      3.60005        -0.000307      0.000000     -0.000000
      1.80003      1.80003      0.00000         0.009280      0.010686      0.000000
      5.40008      1.80003      0.00000         0.009001     -0.010295     -0.000000
      1.80003      5.40008      0.00000         0.009280     -0.010686      0.000000
      5.40008      5.40008      0.00000         0.009001      0.010295      0.000000
      1.80003      1.80003      3.60005         0.000267      0.000179      0.000000
      5.40008      1.80003      3.60005         0.000269     -0.000183     -0.000000
      1.80003      5.40008      3.60005         0.000267     -0.000179     -0.000000
      5.40008      5.40008      3.60005         0.000269      0.000183      0.000000
      1.80003      0.00000      1.80003         0.009280     -0.000000      0.010686
      5.40008      0.00000      1.80003         0.009001     -0.000000     -0.010295
      1.80003      3.60005      1.80003         0.000267      0.000000      0.000179
      5.40008      3.60005      1.80003         0.000269      0.000000     -0.000183
      1.80003      0.00000      5.40008         0.009280     -0.000000     -0.010686
      5.40008      0.00000      5.40008         0.009001      0.000000      0.010295
      1.80003      3.60005      5.40008         0.000267     -0.000000     -0.000179
      5.40008      3.60005      5.40008         0.000269      0.000000      0.000183
      0.00000      1.80003      1.80003        -0.000891     -0.000022     -0.000022
      3.60005      1.80003      1.80003         0.000675     -0.000000     -0.000000
      0.00000      5.40008      1.80003        -0.000891      0.000022     -0.000022
      3.60005      5.40008      1.80003         0.000675      0.000000     -0.000000
      0.00000      1.80003      5.40008        -0.000891     -0.000022      0.000022
      3.60005      1.80003      5.40008         0.000675     -0.000000      0.000000
      0.00000      5.40008      5.40008        -0.000891      0.000022      0.000022
      3.60005      5.40008      5.40008         0.000675      0.000000      0.000000
 -----------------------------------------------------------------------------------
    total drift:                                0.000004     -0.000000     -0.000000


--------------------------------------------------------------------------------------------------------



 mean value of Nose-termostat <S>:     1.000 mean value of <T> :     0.000
 mean temperature <T/S>/<1/S>  :     0.000

     LOOP+:  VPU time********: CPU time********
  
  
 General timing and accounting informations for this job:
 ========================================================
  
                  Total CPU time used (sec):   128356.035
                            User time (sec):    98012.455
                          System time (sec):    30343.580
                         Elapsed time (sec):   128502.378
  
                   Maximum memory used (kb):    17639624.
                   Average memory used (kb):           0.
  
                          Minor page faults:      3542322
                          Major page faults:            0
                 Voluntary context switches:         1037
