  32  32   0   0
  0.1914389E+02  0.8492979E-09  0.8492979E-09  0.8492979E-09  0.5000000E-15
  1.000000000000000E-004
  CAR 
 unknown system                          
     11.70703507     -5.17302110  301      2.59014880      1.00000000
     -5.173  0.0000E+00  0.0000E+00
     -5.117  0.0000E+00  0.0000E+00
     -5.060  0.0000E+00  0.0000E+00
     -5.004  0.0000E+00  0.0000E+00
     -4.948  0.0000E+00  0.0000E+00
     -4.892  0.0000E+00  0.0000E+00
     -4.835  0.0000E+00  0.0000E+00
     -4.779  0.0000E+00  0.0000E+00
     -4.723  0.0000E+00  0.0000E+00
     -4.667  0.0000E+00  0.0000E+00
     -4.610  0.0000E+00  0.0000E+00
     -4.554  0.0000E+00  0.0000E+00
     -4.498  0.0000E+00  0.0000E+00
     -4.442  0.4228E-08  0.2379E-09
     -4.385  0.1165E+00  0.6556E-02
     -4.329  0.6503E+00  0.4315E-01
     -4.273  0.1048E+01  0.1021E+00
     -4.216  0.1672E+01  0.1962E+00
     -4.160  0.1668E+01  0.2901E+00
     -4.104  0.1870E+01  0.3953E+00
     -4.048  0.2316E+01  0.5256E+00
     -3.991  0.1655E+01  0.6187E+00
     -3.935  0.3088E+01  0.7925E+00
     -3.879  0.2139E+01  0.9128E+00
     -3.823  0.2920E+01  0.1077E+01
     -3.766  0.3003E+01  0.1246E+01
     -3.710  0.3913E+01  0.1466E+01
     -3.654  0.2727E+01  0.1620E+01
     -3.598  0.3960E+01  0.1843E+01
     -3.541  0.4818E+01  0.2114E+01
     -3.485  0.3534E+01  0.2313E+01
     -3.429  0.4560E+01  0.2569E+01
     -3.372  0.5716E+01  0.2891E+01
     -3.316  0.5051E+01  0.3175E+01
     -3.260  0.6515E+01  0.3541E+01
     -3.204  0.6515E+01  0.3908E+01
     -3.147  0.2163E+02  0.5125E+01
     -3.091  0.3966E+02  0.7356E+01
     -3.035  0.6230E+02  0.1086E+02
     -2.979  0.7674E+02  0.1518E+02
     -2.922  0.8660E+02  0.2005E+02
     -2.866  0.9838E+02  0.2559E+02
     -2.810  0.1147E+03  0.3204E+02
     -2.754  0.1490E+03  0.4043E+02
     -2.697  0.1448E+03  0.4858E+02
     -2.641  0.1208E+03  0.5537E+02
     -2.585  0.1161E+03  0.6190E+02
     -2.528  0.1074E+03  0.6794E+02
     -2.472  0.1002E+03  0.7358E+02
     -2.416  0.7604E+02  0.7786E+02
     -2.360  0.8115E+02  0.8243E+02
     -2.303  0.8574E+02  0.8725E+02
     -2.247  0.8531E+02  0.9205E+02
     -2.191  0.1011E+03  0.9774E+02
     -2.135  0.1113E+03  0.1040E+03
     -2.078  0.1113E+03  0.1103E+03
     -2.022  0.1022E+03  0.1160E+03
     -1.966  0.9665E+02  0.1215E+03
     -1.910  0.1076E+03  0.1275E+03
     -1.853  0.9792E+02  0.1330E+03
     -1.797  0.1234E+03  0.1400E+03
     -1.741  0.1459E+03  0.1482E+03
     -1.684  0.1703E+03  0.1578E+03
     -1.628  0.1903E+03  0.1685E+03
     -1.572  0.1361E+03  0.1761E+03
     -1.516  0.1190E+03  0.1828E+03
     -1.459  0.9659E+02  0.1882E+03
     -1.403  0.8412E+02  0.1930E+03
     -1.347  0.1145E+03  0.1994E+03
     -1.291  0.1030E+03  0.2052E+03
     -1.234  0.1025E+03  0.2110E+03
     -1.178  0.1309E+03  0.2184E+03
     -1.122  0.1264E+03  0.2255E+03
     -1.066  0.1183E+03  0.2321E+03
     -1.009  0.1361E+03  0.2398E+03
     -0.953  0.1275E+03  0.2470E+03
     -0.897  0.1079E+03  0.2530E+03
     -0.840  0.1045E+03  0.2589E+03
     -0.784  0.1049E+03  0.2648E+03
     -0.728  0.1046E+03  0.2707E+03
     -0.672  0.9433E+02  0.2760E+03
     -0.615  0.1175E+03  0.2826E+03
     -0.559  0.1050E+03  0.2885E+03
     -0.503  0.1315E+03  0.2959E+03
     -0.447  0.1798E+03  0.3060E+03
     -0.390  0.1794E+03  0.3161E+03
     -0.334  0.1193E+03  0.3229E+03
     -0.278  0.8366E+02  0.3276E+03
     -0.222  0.4477E+02  0.3301E+03
     -0.165  0.6147E+01  0.3304E+03
     -0.109  0.1059E+02  0.3310E+03
     -0.053  0.8273E+01  0.3315E+03
      0.004  0.3869E+01  0.3317E+03
      0.060  0.7238E+01  0.3321E+03
      0.116  0.9725E+01  0.3327E+03
      0.172  0.8771E+01  0.3332E+03
      0.229  0.5324E+01  0.3335E+03
      0.285  0.3261E+01  0.3336E+03
      0.341  0.1003E+02  0.3342E+03
      0.397  0.1005E+02  0.3348E+03
      0.454  0.6479E+01  0.3351E+03
      0.510  0.6184E+01  0.3355E+03
      0.566  0.4087E+01  0.3357E+03
      0.622  0.9734E+01  0.3363E+03
      0.679  0.8921E+01  0.3368E+03
      0.735  0.7483E+01  0.3372E+03
      0.791  0.6597E+01  0.3376E+03
      0.848  0.6952E+01  0.3379E+03
      0.904  0.3212E+01  0.3381E+03
      0.960  0.1252E+02  0.3388E+03
      1.016  0.8019E+01  0.3393E+03
      1.073  0.6713E+01  0.3397E+03
      1.129  0.5932E+01  0.3400E+03
      1.185  0.6565E+01  0.3404E+03
      1.241  0.6114E+01  0.3407E+03
      1.298  0.1159E+02  0.3414E+03
      1.354  0.8350E+01  0.3418E+03
      1.410  0.7920E+01  0.3423E+03
      1.466  0.6062E+01  0.3426E+03
      1.523  0.6879E+01  0.3430E+03
      1.579  0.7203E+01  0.3434E+03
      1.635  0.1008E+02  0.3440E+03
      1.692  0.6237E+01  0.3443E+03
      1.748  0.1084E+02  0.3449E+03
      1.804  0.6678E+01  0.3453E+03
      1.860  0.7428E+01  0.3457E+03
      1.917  0.6388E+01  0.3461E+03
      1.973  0.8017E+01  0.3465E+03
      2.029  0.1274E+02  0.3473E+03
      2.085  0.6065E+01  0.3476E+03
      2.142  0.9307E+01  0.3481E+03
      2.198  0.6361E+01  0.3485E+03
      2.254  0.8597E+01  0.3490E+03
      2.310  0.9457E+01  0.3495E+03
      2.367  0.6810E+01  0.3499E+03
      2.423  0.1179E+02  0.3505E+03
      2.479  0.8542E+01  0.3510E+03
      2.536  0.1059E+02  0.3516E+03
      2.592  0.6917E+01  0.3520E+03
      2.648  0.1067E+02  0.3526E+03
      2.704  0.6354E+01  0.3530E+03
      2.761  0.8678E+01  0.3535E+03
      2.817  0.1411E+02  0.3542E+03
      2.873  0.8169E+01  0.3547E+03
      2.929  0.9296E+01  0.3552E+03
      2.986  0.9256E+01  0.3557E+03
      3.042  0.9395E+01  0.3563E+03
      3.098  0.7320E+01  0.3567E+03
      3.154  0.8767E+01  0.3572E+03
      3.211  0.1083E+02  0.3578E+03
      3.267  0.6987E+01  0.3582E+03
      3.323  0.1073E+02  0.3588E+03
      3.380  0.1036E+02  0.3594E+03
      3.436  0.8152E+01  0.3598E+03
      3.492  0.1023E+02  0.3604E+03
      3.548  0.4040E+01  0.3606E+03
      3.605  0.1160E+02  0.3613E+03
      3.661  0.9163E+01  0.3618E+03
      3.717  0.1036E+02  0.3624E+03
      3.773  0.9133E+01  0.3629E+03
      3.830  0.7870E+01  0.3633E+03
      3.886  0.9045E+01  0.3639E+03
      3.942  0.1022E+02  0.3644E+03
      3.998  0.5508E+01  0.3647E+03
      4.055  0.6800E+01  0.3651E+03
      4.111  0.1095E+02  0.3657E+03
      4.167  0.1105E+02  0.3664E+03
      4.224  0.8230E+01  0.3668E+03
      4.280  0.8692E+01  0.3673E+03
      4.336  0.6641E+01  0.3677E+03
      4.392  0.1090E+02  0.3683E+03
      4.449  0.7111E+01  0.3687E+03
      4.505  0.9529E+01  0.3692E+03
      4.561  0.9436E+01  0.3698E+03
      4.617  0.7132E+01  0.3702E+03
      4.674  0.1121E+02  0.3708E+03
      4.730  0.6443E+01  0.3712E+03
      4.786  0.8374E+01  0.3716E+03
      4.842  0.7403E+01  0.3720E+03
      4.899  0.6511E+01  0.3724E+03
      4.955  0.8417E+01  0.3729E+03
      5.011  0.9173E+01  0.3734E+03
      5.068  0.8343E+01  0.3739E+03
      5.124  0.6970E+01  0.3743E+03
      5.180  0.7214E+01  0.3747E+03
      5.236  0.5407E+01  0.3750E+03
      5.293  0.6338E+01  0.3753E+03
      5.349  0.8690E+01  0.3758E+03
      5.405  0.5438E+01  0.3761E+03
      5.461  0.7919E+01  0.3766E+03
      5.518  0.7980E+01  0.3770E+03
      5.574  0.6251E+01  0.3774E+03
      5.630  0.9319E+01  0.3779E+03
      5.686  0.8381E+01  0.3784E+03
      5.743  0.1000E+02  0.3789E+03
      5.799  0.1097E+02  0.3795E+03
      5.855  0.1167E+02  0.3802E+03
      5.912  0.1118E+02  0.3808E+03
      5.968  0.1159E+02  0.3815E+03
      6.024  0.1434E+02  0.3823E+03
      6.080  0.8583E+01  0.3828E+03
      6.137  0.1283E+02  0.3835E+03
      6.193  0.1333E+02  0.3842E+03
      6.249  0.8587E+01  0.3847E+03
      6.305  0.7339E+01  0.3851E+03
      6.362  0.1407E+02  0.3859E+03
      6.418  0.1528E+02  0.3868E+03
      6.474  0.5645E+01  0.3871E+03
      6.530  0.1551E+02  0.3880E+03
      6.587  0.9905E+01  0.3885E+03
      6.643  0.1044E+02  0.3891E+03
      6.699  0.8558E+01  0.3896E+03
      6.756  0.1149E+02  0.3903E+03
      6.812  0.1121E+02  0.3909E+03
      6.868  0.9089E+01  0.3914E+03
      6.924  0.1239E+02  0.3921E+03
      6.981  0.1001E+02  0.3927E+03
      7.037  0.9128E+01  0.3932E+03
      7.093  0.1008E+02  0.3937E+03
      7.149  0.1117E+02  0.3944E+03
      7.206  0.1102E+02  0.3950E+03
      7.262  0.8100E+01  0.3954E+03
      7.318  0.1134E+02  0.3961E+03
      7.374  0.7789E+01  0.3965E+03
      7.431  0.1144E+02  0.3972E+03
      7.487  0.8105E+01  0.3976E+03
      7.543  0.1038E+02  0.3982E+03
      7.600  0.9588E+01  0.3987E+03
      7.656  0.9948E+01  0.3993E+03
      7.712  0.1049E+02  0.3999E+03
      7.768  0.1059E+02  0.4005E+03
      7.825  0.8167E+01  0.4009E+03
      7.881  0.5915E+01  0.4013E+03
      7.937  0.1061E+02  0.4019E+03
      7.993  0.9909E+01  0.4024E+03
      8.050  0.9910E+01  0.4030E+03
      8.106  0.1077E+02  0.4036E+03
      8.162  0.9786E+01  0.4041E+03
      8.218  0.8624E+01  0.4046E+03
      8.275  0.6402E+01  0.4050E+03
      8.331  0.1128E+02  0.4056E+03
      8.387  0.9608E+01  0.4062E+03
      8.444  0.7992E+01  0.4066E+03
      8.500  0.1343E+02  0.4074E+03
      8.556  0.1463E+02  0.4082E+03
      8.612  0.9440E+01  0.4087E+03
      8.669  0.1365E+02  0.4095E+03
      8.725  0.2191E+02  0.4107E+03
      8.781  0.1041E+02  0.4113E+03
      8.837  0.1240E+02  0.4120E+03
      8.894  0.5443E+01  0.4123E+03
      8.950  0.9463E+01  0.4129E+03
      9.006  0.1022E+02  0.4134E+03
      9.062  0.1473E+02  0.4143E+03
      9.119  0.1528E+02  0.4151E+03
      9.175  0.1800E+02  0.4161E+03
      9.231  0.1519E+02  0.4170E+03
      9.288  0.1335E+02  0.4177E+03
      9.344  0.1451E+02  0.4186E+03
      9.400  0.1756E+02  0.4195E+03
      9.456  0.1063E+02  0.4201E+03
      9.513  0.8921E+01  0.4206E+03
      9.569  0.1552E+02  0.4215E+03
      9.625  0.9965E+01  0.4221E+03
      9.681  0.1072E+02  0.4227E+03
      9.738  0.1965E+02  0.4238E+03
      9.794  0.2300E+02  0.4251E+03
      9.850  0.1410E+02  0.4259E+03
      9.906  0.1107E+02  0.4265E+03
      9.963  0.1243E+02  0.4272E+03
     10.019  0.8568E+01  0.4277E+03
     10.075  0.9065E+01  0.4282E+03
     10.132  0.1150E+02  0.4288E+03
     10.188  0.7652E+01  0.4293E+03
     10.244  0.9187E+01  0.4298E+03
     10.300  0.9287E+01  0.4303E+03
     10.357  0.8400E+01  0.4308E+03
     10.413  0.8797E+01  0.4313E+03
     10.469  0.2268E+01  0.4314E+03
     10.525  0.2865E+01  0.4316E+03
     10.582  0.3234E+01  0.4317E+03
     10.638  0.1050E+01  0.4318E+03
     10.694  0.2240E+01  0.4319E+03
     10.750  0.4413E-02  0.4319E+03
     10.807  0.5951E-14  0.4319E+03
     10.863  0.1832E+00  0.4319E+03
     10.919  0.6398E+00  0.4320E+03
     10.976  0.4934E+00  0.4320E+03
     11.032  0.0000E+00  0.4320E+03
     11.088  0.0000E+00  0.4320E+03
     11.144  0.0000E+00  0.4320E+03
     11.201  0.0000E+00  0.4320E+03
     11.257  0.0000E+00  0.4320E+03
     11.313  0.0000E+00  0.4320E+03
     11.369  0.0000E+00  0.4320E+03
     11.426  0.0000E+00  0.4320E+03
     11.482  0.0000E+00  0.4320E+03
     11.538  0.0000E+00  0.4320E+03
     11.595  0.0000E+00  0.4320E+03
     11.651  0.0000E+00  0.4320E+03
     11.707  0.0000E+00  0.4320E+03
