   32   32    1    1
  0.1914389E+02  0.8492979E-09  0.8492979E-09  0.8492979E-09  0.5000000E-15
  1.000000000000000E-004
  CAR 
 unknown system                          
  352  196  216
 
  0.0000000E+00  0.0000000E+00  0.0000000E+00  0.5787037E-03
   1       -4.4057
   2       -3.2171
   3       -3.2171
   4       -3.2171
   5       -3.1941
   6       -3.1941
   7       -3.1941
   8       -3.1941
   9       -3.1181
  10       -3.1181
  11       -3.1181
  12       -2.8044
  13       -2.8027
  14       -2.8027
  15       -2.8027
  16       -2.8027
  17       -2.8011
  18       -2.5888
  19       -2.5874
  20       -2.5874
  21       -2.5874
  22       -2.5874
  23       -2.5860
  24       -2.5376
  25       -2.5361
  26       -2.5361
  27       -2.5361
  28       -2.5361
  29       -2.5347
  30       -2.3233
  31       -2.3233
  32       -2.3230
  33       -2.3223
  34       -2.3220
  35       -2.3220
  36       -2.3220
  37       -2.3220
  38       -2.3217
  39       -2.3211
  40       -2.3208
  41       -2.3208
  42       -2.1466
  43       -2.1448
  44       -2.1448
  45       -2.1440
  46       -2.1440
  47       -2.1440
  48       -2.1440
  49       -2.1440
  50       -2.1439
  51       -2.1432
  52       -2.1432
  53       -2.1415
  54       -2.0950
  55       -2.0950
  56       -2.0934
  57       -2.0934
  58       -2.0934
  59       -2.0934
  60       -2.0934
  61       -2.0934
  62       -2.0934
  63       -2.0933
  64       -2.0917
  65       -2.0917
  66       -1.9093
  67       -1.9093
  68       -1.9093
  69       -1.9092
  70       -1.9092
  71       -1.9092
  72       -1.9092
  73       -1.9092
  74       -1.8953
  75       -1.8953
  76       -1.8953
  77       -1.7768
  78       -1.7750
  79       -1.7747
  80       -1.7747
  81       -1.7745
  82       -1.7745
  83       -1.7745
  84       -1.7745
  85       -1.7744
  86       -1.7744
  87       -1.7741
  88       -1.7723
  89       -1.3516
  90       -1.3510
  91       -1.3503
  92       -1.3503
  93       -1.3499
  94       -1.3499
  95       -1.3499
  96       -1.3499
  97       -1.3495
  98       -1.3495
  99       -1.3488
 100       -1.3483
 101       -1.1768
 102       -1.1768
 103       -1.1751
 104       -1.1751
 105       -1.1750
 106       -1.1750
 107       -1.1750
 108       -1.1750
 109       -1.1748
 110       -1.1748
 111       -1.1732
 112       -1.1732
 113       -1.0538
 114       -1.0537
 115       -1.0383
 116       -1.0383
 117       -1.0366
 118       -1.0366
 119       -1.0363
 120       -1.0363
 121       -1.0363
 122       -1.0363
 123       -1.0362
 124       -1.0360
 125       -1.0345
 126       -1.0345
 127       -1.0305
 128       -1.0298
 129       -1.0297
 130       -1.0294
 131       -1.0294
 132       -1.0285
 133       -0.9527
 134       -0.9511
 135       -0.9511
 136       -0.9511
 137       -0.9511
 138       -0.9495
 139       -0.7506
 140       -0.7498
 141       -0.7498
 142       -0.7498
 143       -0.7498
 144       -0.7490
 145       -0.4322
 146       -0.4322
 147       -0.4322
 148       -0.4047
 149       -0.4047
 150       -0.4047
 151       -0.4047
 152       -0.4047
 153       -0.4047
 154       -0.4047
 155       -0.4047
 156       -0.2366
 157       -0.2363
 158       -0.2363
 159       -0.2363
 160       -0.2363
 161       -0.2363
 162       -0.2355
 163       -0.2355
 164       -0.2355
 165       -0.2355
 166       -0.2355
 167       -0.2352
 168        1.9250
 169        1.9260
 170        1.9260
 171        1.9269
 172        1.9272
 173        1.9272
 174        1.9272
 175        1.9272
 176        1.9275
 177        1.9284
 178        1.9284
 179        1.9294
 180        2.4504
 181        2.4504
 182        2.4504
 183        2.4504
 184        4.2701
 185        4.2701
 186        4.2701
 187        5.5654
 188        5.5654
 189        5.5654
 190        5.5654
 191        8.0918
 192        8.0918
 193        8.0943
 194        8.0943
 195        8.0946
 196        8.0946
 197        8.0946
 198        8.0946
 199        8.0949
 200        8.0949
 201        8.0974
 202        8.0974
 203        8.4514
 204        8.4514
 205        8.4514
 206        8.8438
 207        8.8438
 208        8.8438
 209        8.8439
 210        8.8439
 211        8.8439
 212       10.1195
 213       10.1213
 214       10.1213
 215       10.1213
 216       10.1230
 
  0.8333333E-01  0.0000000E+00  0.0000000E+00  0.1157407E-02
   1       -4.3891
   2       -3.2107
   3       -3.2088
   4       -3.2088
   5       -3.1864
   6       -3.1864
   7       -3.1864
   8       -3.1864
   9       -3.1134
  10       -3.1109
  11       -3.1109
  12       -2.8914
  13       -2.7922
  14       -2.7921
  15       -2.7921
  16       -2.7921
  17       -2.7724
  18       -2.6152
  19       -2.6026
  20       -2.6025
  21       -2.5814
  22       -2.5814
  23       -2.5814
  24       -2.5813
  25       -2.5320
  26       -2.5320
  27       -2.5320
  28       -2.5320
  29       -2.4561
  30       -2.3802
  31       -2.3802
  32       -2.3802
  33       -2.3802
  34       -2.3394
  35       -2.3394
  36       -2.3394
  37       -2.3394
  38       -2.3018
  39       -2.3018
  40       -2.3018
  41       -2.3018
  42       -2.2524
  43       -2.2524
  44       -2.1780
  45       -2.1779
  46       -2.1779
  47       -2.1779
  48       -2.1178
  49       -2.1172
  50       -2.1172
  51       -2.1172
  52       -2.1139
  53       -2.1139
  54       -2.1139
  55       -2.1134
  56       -2.0959
  57       -2.0959
  58       -2.0959
  59       -2.0959
  60       -2.0927
  61       -2.0927
  62       -2.0927
  63       -2.0925
  64       -1.9235
  65       -1.9235
  66       -1.9117
  67       -1.9117
  68       -1.9117
  69       -1.9117
  70       -1.9037
  71       -1.9037
  72       -1.9037
  73       -1.9037
  74       -1.9011
  75       -1.8898
  76       -1.8898
  77       -1.8128
  78       -1.8128
  79       -1.8128
  80       -1.8128
  81       -1.7849
  82       -1.7849
  83       -1.7848
  84       -1.7848
  85       -1.7352
  86       -1.7352
  87       -1.7352
  88       -1.7352
  89       -1.3762
  90       -1.3762
  91       -1.3762
  92       -1.3762
  93       -1.3417
  94       -1.3417
  95       -1.3417
  96       -1.3417
  97       -1.3141
  98       -1.3141
  99       -1.3141
 100       -1.3140
 101       -1.2789
 102       -1.2789
 103       -1.2515
 104       -1.2515
 105       -1.2515
 106       -1.2515
 107       -1.1754
 108       -1.1754
 109       -1.1754
 110       -1.1754
 111       -1.1523
 112       -1.0849
 113       -1.0849
 114       -1.0848
 115       -1.0848
 116       -1.0675
 117       -1.0675
 118       -1.0595
 119       -1.0512
 120       -1.0299
 121       -1.0297
 122       -1.0297
 123       -1.0297
 124       -1.0151
 125       -1.0150
 126       -1.0088
 127       -1.0088
 128       -1.0088
 129       -1.0087
 130       -0.9755
 131       -0.9755
 132       -0.9755
 133       -0.9755
 134       -0.8822
 135       -0.8822
 136       -0.8822
 137       -0.8822
 138       -0.7902
 139       -0.7373
 140       -0.7373
 141       -0.7373
 142       -0.7373
 143       -0.7091
 144       -0.6603
 145       -0.4398
 146       -0.4398
 147       -0.4350
 148       -0.4238
 149       -0.4238
 150       -0.4238
 151       -0.4238
 152       -0.4115
 153       -0.4115
 154       -0.4115
 155       -0.4115
 156       -0.2629
 157       -0.2629
 158       -0.2458
 159       -0.2458
 160       -0.2458
 161       -0.2458
 162       -0.2457
 163       -0.2457
 164       -0.2365
 165       -0.2363
 166       -0.2355
 167       -0.2352
 168        1.5696
 169        1.5696
 170        1.5696
 171        1.5696
 172        1.9317
 173        1.9317
 174        1.9318
 175        1.9318
 176        2.3153
 177        2.3153
 178        2.3153
 179        2.3153
 180        2.4319
 181        2.4319
 182        2.4319
 183        2.4319
 184        4.1357
 185        4.3110
 186        4.3110
 187        5.6275
 188        5.6275
 189        5.6275
 190        5.6275
 191        7.6233
 192        7.6233
 193        7.7520
 194        7.7520
 195        7.7520
 196        7.7521
 197        8.1200
 198        8.1200
 199        8.1200
 200        8.1200
 201        8.4547
 202        8.4547
 203        8.5750
 204        8.5750
 205        8.6131
 206        8.8287
 207        8.8287
 208        9.0561
 209        9.0561
 210        9.0561
 211        9.0561
 212       10.1628
 213       10.1628
 214       10.2878
 215       10.2879
 216       10.2880
 
  0.1666667E+00  0.0000000E+00  0.0000000E+00  0.1157407E-02
   1       -4.3394
   2       -3.1918
   3       -3.1843
   4       -3.1843
   5       -3.1633
   6       -3.1633
   7       -3.1633
   8       -3.1633
   9       -3.0992
  10       -3.0890
  11       -3.0890
  12       -3.0387
  13       -2.7865
  14       -2.7608
  15       -2.7608
  16       -2.7608
  17       -2.7607
  18       -2.6919
  19       -2.6451
  20       -2.6451
  21       -2.5636
  22       -2.5636
  23       -2.5636
  24       -2.5636
  25       -2.5197
  26       -2.5197
  27       -2.5197
  28       -2.5197
  29       -2.4907
  30       -2.4906
  31       -2.4906
  32       -2.4906
  33       -2.3995
  34       -2.3995
  35       -2.3764
  36       -2.3529
  37       -2.3529
  38       -2.3529
  39       -2.3529
  40       -2.2839
  41       -2.2839
  42       -2.2839
  43       -2.2839
  44       -2.2180
  45       -2.2180
  46       -2.2180
  47       -2.2179
  48       -2.1027
  49       -2.1027
  50       -2.1027
  51       -2.1026
  52       -2.0983
  53       -2.0979
  54       -2.0978
  55       -2.0978
  56       -2.0907
  57       -2.0907
  58       -2.0907
  59       -2.0904
  60       -2.0755
  61       -2.0755
  62       -2.0754
  63       -2.0754
  64       -1.9188
  65       -1.9188
  66       -1.9188
  67       -1.9188
  68       -1.9183
  69       -1.8870
  70       -1.8870
  71       -1.8870
  72       -1.8870
  73       -1.8788
  74       -1.8788
  75       -1.8788
  76       -1.8788
  77       -1.8733
  78       -1.8733
  79       -1.8347
  80       -1.8347
  81       -1.8347
  82       -1.8347
  83       -1.7439
  84       -1.7439
  85       -1.6302
  86       -1.6302
  87       -1.6302
  88       -1.6302
  89       -1.4369
  90       -1.4368
  91       -1.4368
  92       -1.4368
  93       -1.3792
  94       -1.3792
  95       -1.3792
  96       -1.3792
  97       -1.3777
  98       -1.3777
  99       -1.2915
 100       -1.2914
 101       -1.2914
 102       -1.2914
 103       -1.2644
 104       -1.2570
 105       -1.2570
 106       -1.2570
 107       -1.2569
 108       -1.1766
 109       -1.1766
 110       -1.1766
 111       -1.1766
 112       -1.1214
 113       -1.1214
 114       -1.1214
 115       -1.1213
 116       -1.0766
 117       -1.0436
 118       -1.0303
 119       -1.0303
 120       -1.0303
 121       -1.0302
 122       -0.9738
 123       -0.9738
 124       -0.9582
 125       -0.9582
 126       -0.9446
 127       -0.9446
 128       -0.9446
 129       -0.9445
 130       -0.9034
 131       -0.9034
 132       -0.9034
 133       -0.9034
 134       -0.8326
 135       -0.8326
 136       -0.8326
 137       -0.8326
 138       -0.8297
 139       -0.6690
 140       -0.6442
 141       -0.6442
 142       -0.6442
 143       -0.6442
 144       -0.4801
 145       -0.4801
 146       -0.4801
 147       -0.4801
 148       -0.4625
 149       -0.4625
 150       -0.4432
 151       -0.4318
 152       -0.4318
 153       -0.4318
 154       -0.4318
 155       -0.3398
 156       -0.3398
 157       -0.2933
 158       -0.2763
 159       -0.2763
 160       -0.2763
 161       -0.2763
 162       -0.2736
 163       -0.2736
 164       -0.2365
 165       -0.2362
 166       -0.2356
 167       -0.2353
 168        1.2406
 169        1.2406
 170        1.2406
 171        1.2406
 172        1.9455
 173        1.9455
 174        1.9455
 175        1.9455
 176        2.3820
 177        2.3820
 178        2.3820
 179        2.3820
 180        2.7355
 181        2.7355
 182        2.7355
 183        2.7355
 184        3.7826
 185        4.4307
 186        4.4307
 187        5.8074
 188        5.8074
 189        5.8074
 190        5.8075
 191        7.1606
 192        7.1606
 193        7.1607
 194        7.1607
 195        7.1641
 196        7.1641
 197        8.1957
 198        8.1957
 199        8.1957
 200        8.1957
 201        8.4648
 202        8.4648
 203        8.7889
 204        8.7889
 205        9.0482
 206        9.0615
 207        9.0615
 208        9.2813
 209        9.2813
 210        9.2813
 211        9.2813
 212        9.7673
 213        9.7673
 214        9.7673
 215        9.7673
 216       10.2824
 
  0.2500000E+00  0.0000000E+00  0.0000000E+00  0.1157407E-02
   1       -4.2572
   2       -3.2275
   3       -3.1610
   4       -3.1443
   5       -3.1443
   6       -3.1250
   7       -3.1250
   8       -3.1250
   9       -3.1250
  10       -3.0756
  11       -3.0525
  12       -3.0525
  13       -2.8281
  14       -2.7651
  15       -2.7107
  16       -2.7101
  17       -2.7098
  18       -2.7098
  19       -2.7084
  20       -2.7078
  21       -2.6092
  22       -2.6092
  23       -2.6092
  24       -2.6092
  25       -2.5356
  26       -2.5356
  27       -2.5356
  28       -2.5356
  29       -2.5339
  30       -2.5339
  31       -2.4995
  32       -2.4995
  33       -2.4995
  34       -2.4995
  35       -2.3642
  36       -2.3641
  37       -2.3641
  38       -2.3641
  39       -2.2986
  40       -2.2812
  41       -2.2812
  42       -2.2812
  43       -2.2812
  44       -2.2622
  45       -2.2622
  46       -2.2622
  47       -2.2622
  48       -2.1115
  49       -2.1115
  50       -2.1115
  51       -2.1115
  52       -2.0885
  53       -2.0877
  54       -2.0877
  55       -2.0876
  56       -2.0854
  57       -2.0853
  58       -2.0853
  59       -2.0845
  60       -2.0476
  61       -2.0476
  62       -2.0476
  63       -2.0476
  64       -1.9523
  65       -1.9523
  66       -1.9523
  67       -1.9523
  68       -1.9465
  69       -1.9302
  70       -1.9302
  71       -1.9302
  72       -1.9302
  73       -1.8878
  74       -1.8878
  75       -1.8878
  76       -1.8878
  77       -1.8595
  78       -1.8595
  79       -1.8595
  80       -1.8595
  81       -1.8459
  82       -1.8459
  83       -1.5565
  84       -1.5565
  85       -1.5094
  86       -1.5093
  87       -1.5093
  88       -1.5093
  89       -1.5065
  90       -1.5064
  91       -1.5064
  92       -1.5064
  93       -1.4864
  94       -1.4863
  95       -1.4863
  96       -1.4863
  97       -1.4703
  98       -1.4703
  99       -1.3057
 100       -1.2202
 101       -1.2202
 102       -1.2202
 103       -1.2202
 104       -1.1978
 105       -1.1978
 106       -1.1978
 107       -1.1977
 108       -1.1782
 109       -1.1782
 110       -1.1782
 111       -1.1782
 112       -1.1472
 113       -1.1472
 114       -1.1472
 115       -1.1472
 116       -1.1040
 117       -1.0327
 118       -1.0327
 119       -1.0327
 120       -1.0327
 121       -1.0310
 122       -0.9125
 123       -0.9125
 124       -0.8682
 125       -0.8664
 126       -0.8664
 127       -0.8664
 128       -0.8658
 129       -0.8490
 130       -0.8490
 131       -0.8481
 132       -0.8481
 133       -0.8481
 134       -0.8481
 135       -0.8220
 136       -0.8220
 137       -0.8219
 138       -0.8219
 139       -0.6300
 140       -0.5703
 141       -0.5703
 142       -0.5703
 143       -0.5703
 144       -0.4996
 145       -0.4996
 146       -0.4752
 147       -0.4752
 148       -0.4752
 149       -0.4752
 150       -0.4651
 151       -0.4651
 152       -0.4651
 153       -0.4650
 154       -0.4592
 155       -0.4592
 156       -0.4568
 157       -0.3252
 158       -0.3252
 159       -0.3252
 160       -0.3252
 161       -0.3190
 162       -0.3190
 163       -0.2365
 164       -0.2362
 165       -0.2356
 166       -0.2353
 167        0.1336
 168        0.9374
 169        0.9374
 170        0.9374
 171        0.9374
 172        1.9688
 173        1.9689
 174        1.9689
 175        1.9689
 176        2.3129
 177        2.3129
 178        2.3129
 179        2.3129
 180        3.1883
 181        3.1883
 182        3.1883
 183        3.1883
 184        3.3028
 185        4.6213
 186        4.6213
 187        6.0894
 188        6.0894
 189        6.0894
 190        6.0894
 191        6.5356
 192        6.5356
 193        6.5356
 194        6.5356
 195        6.7199
 196        6.7199
 197        8.3199
 198        8.3199
 199        8.3199
 200        8.3199
 201        8.4818
 202        8.4818
 203        8.7356
 204        8.7356
 205        9.1188
 206        9.1188
 207        9.1188
 208        9.1188
 209        9.4236
 210        9.4236
 211        9.4236
 212        9.4236
 213        9.5508
 214        9.5508
 215        9.6648
 216        9.9109
 
  0.3333333E+00  0.0000000E+00  0.0000000E+00  0.1157407E-02
   1       -4.1436
   2       -3.4341
   3       -3.1193
   4       -3.0902
   5       -3.0902
   6       -3.0719
   7       -3.0719
   8       -3.0719
   9       -3.0719
  10       -3.0431
  11       -3.0016
  12       -3.0016
  13       -2.8847
  14       -2.8337
  15       -2.7852
  16       -2.7852
  17       -2.7235
  18       -2.7235
  19       -2.7235
  20       -2.7235
  21       -2.6552
  22       -2.6552
  23       -2.6415
  24       -2.6415
  25       -2.6415
  26       -2.6415
  27       -2.4997
  28       -2.4997
  29       -2.4997
  30       -2.4997
  31       -2.4720
  32       -2.4720
  33       -2.4720
  34       -2.4719
  35       -2.3765
  36       -2.3765
  37       -2.3765
  38       -2.3765
  39       -2.3128
  40       -2.3128
  41       -2.3127
  42       -2.3127
  43       -2.3085
  44       -2.3085
  45       -2.3085
  46       -2.3085
  47       -2.2239
  48       -2.1189
  49       -2.1189
  50       -2.1189
  51       -2.1189
  52       -2.0845
  53       -2.0840
  54       -2.0840
  55       -2.0840
  56       -2.0787
  57       -2.0787
  58       -2.0787
  59       -2.0783
  60       -2.0249
  61       -2.0247
  62       -2.0247
  63       -2.0247
  64       -2.0204
  65       -2.0204
  66       -2.0204
  67       -2.0202
  68       -1.9851
  69       -1.9452
  70       -1.9452
  71       -1.9452
  72       -1.9452
  73       -1.9073
  74       -1.9073
  75       -1.9073
  76       -1.9073
  77       -1.8216
  78       -1.8216
  79       -1.8216
  80       -1.8216
  81       -1.8078
  82       -1.8078
  83       -1.6242
  84       -1.6242
  85       -1.6242
  86       -1.6242
  87       -1.5830
  88       -1.5830
  89       -1.5830
  90       -1.5830
  91       -1.5556
  92       -1.5556
  93       -1.3632
  94       -1.3632
  95       -1.3242
  96       -1.3242
  97       -1.3242
  98       -1.3242
  99       -1.3009
 100       -1.1797
 101       -1.1797
 102       -1.1797
 103       -1.1796
 104       -1.1640
 105       -1.1640
 106       -1.1640
 107       -1.1640
 108       -1.1459
 109       -1.1456
 110       -1.1455
 111       -1.1455
 112       -1.1429
 113       -1.1429
 114       -1.1429
 115       -1.1427
 116       -1.1401
 117       -1.0390
 118       -1.0390
 119       -1.0390
 120       -1.0390
 121       -1.0138
 122       -0.9034
 123       -0.8856
 124       -0.8856
 125       -0.8856
 126       -0.8856
 127       -0.8389
 128       -0.8389
 129       -0.7852
 130       -0.7852
 131       -0.7852
 132       -0.7852
 133       -0.7416
 134       -0.7416
 135       -0.7340
 136       -0.7339
 137       -0.7339
 138       -0.7339
 139       -0.6894
 140       -0.6894
 141       -0.6894
 142       -0.6894
 143       -0.6109
 144       -0.6109
 145       -0.5928
 146       -0.5500
 147       -0.5500
 148       -0.5105
 149       -0.5105
 150       -0.5105
 151       -0.5105
 152       -0.4756
 153       -0.3898
 154       -0.3898
 155       -0.3898
 156       -0.3898
 157       -0.3803
 158       -0.3803
 159       -0.2807
 160       -0.2807
 161       -0.2807
 162       -0.2807
 163       -0.2365
 164       -0.2361
 165       -0.2357
 166       -0.2353
 167        0.6070
 168        0.6573
 169        0.6573
 170        0.6573
 171        0.6574
 172        2.0021
 173        2.0022
 174        2.0022
 175        2.0022
 176        2.2375
 177        2.2375
 178        2.2375
 179        2.2375
 180        2.7646
 181        3.6738
 182        3.6738
 183        3.6738
 184        3.6738
 185        4.8723
 186        4.8723
 187        5.9161
 188        5.9161
 189        5.9161
 190        5.9161
 191        6.2943
 192        6.2943
 193        6.4556
 194        6.4556
 195        6.4556
 196        6.4556
 197        8.4900
 198        8.4900
 199        8.4901
 200        8.4901
 201        8.5021
 202        8.5022
 203        8.5023
 204        8.5023
 205        8.5062
 206        8.5062
 207        8.6790
 208        8.6790
 209        9.5433
 210        9.5433
 211        9.5433
 212        9.5433
 213        9.5628
 214        9.5628
 215        9.5628
 216        9.5628
 
  0.4166667E+00  0.0000000E+00  0.0000000E+00  0.1157407E-02
   1       -4.0005
   2       -3.6395
   3       -3.0682
   4       -3.0240
   5       -3.0240
   6       -3.0043
   7       -3.0043
   8       -3.0043
   9       -3.0043
  10       -3.0021
  11       -2.9473
  12       -2.9363
  13       -2.9363
  14       -2.8966
  15       -2.8672
  16       -2.8672
  17       -2.8289
  18       -2.8289
  19       -2.8289
  20       -2.8289
  21       -2.7628
  22       -2.7628
  23       -2.5595
  24       -2.5595
  25       -2.5594
  26       -2.5594
  27       -2.4603
  28       -2.4603
  29       -2.4603
  30       -2.4603
  31       -2.4379
  32       -2.4379
  33       -2.4379
  34       -2.4378
  35       -2.3950
  36       -2.3950
  37       -2.3950
  38       -2.3949
  39       -2.3815
  40       -2.3815
  41       -2.3815
  42       -2.3815
  43       -2.3545
  44       -2.3545
  45       -2.3545
  46       -2.3545
  47       -2.1540
  48       -2.1195
  49       -2.1195
  50       -2.1195
  51       -2.1195
  52       -2.0810
  53       -2.0803
  54       -2.0803
  55       -2.0803
  56       -2.0765
  57       -2.0765
  58       -2.0765
  59       -2.0759
  60       -2.0737
  61       -2.0737
  62       -2.0737
  63       -2.0737
  64       -2.0333
  65       -2.0033
  66       -2.0033
  67       -2.0033
  68       -2.0033
  69       -1.9630
  70       -1.9630
  71       -1.9630
  72       -1.9630
  73       -1.8796
  74       -1.8796
  75       -1.8796
  76       -1.8796
  77       -1.7741
  78       -1.7740
  79       -1.7740
  80       -1.7740
  81       -1.7593
  82       -1.7593
  83       -1.7286
  84       -1.7286
  85       -1.7286
  86       -1.7286
  87       -1.6532
  88       -1.6532
  89       -1.6532
  90       -1.6532
  91       -1.6326
  92       -1.6326
  93       -1.2706
  94       -1.1830
  95       -1.1802
  96       -1.1802
  97       -1.1802
  98       -1.1802
  99       -1.1740
 100       -1.1740
 101       -1.1739
 102       -1.1739
 103       -1.1672
 104       -1.1672
 105       -1.1556
 106       -1.1556
 107       -1.1556
 108       -1.1556
 109       -1.1036
 110       -1.1035
 111       -1.1035
 112       -1.1035
 113       -1.0673
 114       -1.0673
 115       -1.0673
 116       -1.0673
 117       -1.0516
 118       -1.0516
 119       -1.0516
 120       -1.0516
 121       -0.9920
 122       -0.9364
 123       -0.9363
 124       -0.9363
 125       -0.9363
 126       -0.9363
 127       -0.8312
 128       -0.8312
 129       -0.8312
 130       -0.8312
 131       -0.7851
 132       -0.7851
 133       -0.7606
 134       -0.7606
 135       -0.7063
 136       -0.7063
 137       -0.7063
 138       -0.7063
 139       -0.6429
 140       -0.6429
 141       -0.6429
 142       -0.6429
 143       -0.6387
 144       -0.6387
 145       -0.6121
 146       -0.6121
 147       -0.5669
 148       -0.5669
 149       -0.5669
 150       -0.5669
 151       -0.5581
 152       -0.4990
 153       -0.4668
 154       -0.4668
 155       -0.4668
 156       -0.4668
 157       -0.4556
 158       -0.4556
 159       -0.2364
 160       -0.2360
 161       -0.2358
 162       -0.2354
 163       -0.0700
 164       -0.0700
 165       -0.0700
 166       -0.0700
 167        0.3976
 168        0.3976
 169        0.3976
 170        0.3976
 171        1.1167
 172        2.0459
 173        2.0459
 174        2.0459
 175        2.0459
 176        2.1649
 177        2.1650
 178        2.1650
 179        2.1650
 180        2.2075
 181        4.1911
 182        4.1911
 183        4.1912
 184        4.1912
 185        5.1735
 186        5.1735
 187        5.3152
 188        5.3152
 189        5.3152
 190        5.3152
 191        5.8913
 192        5.8913
 193        6.8905
 194        6.8905
 195        6.8905
 196        6.8905
 197        7.9215
 198        7.9215
 199        7.9215
 200        7.9215
 201        8.5382
 202        8.5382
 203        8.6254
 204        8.6254
 205        8.7031
 206        8.7031
 207        8.7031
 208        8.7031
 209        9.2431
 210        9.2431
 211        9.2431
 212        9.2431
 213        9.6692
 214        9.6692
 215        9.6692
 216        9.6692
 
  0.5000000E+00  0.0000000E+00  0.0000000E+00  0.5787037E-03
   1       -3.8320
   2       -3.8297
   3       -3.0107
   4       -3.0091
   5       -2.9539
   6       -2.9522
   7       -2.9496
   8       -2.9489
   9       -2.9478
  10       -2.9472
  11       -2.9240
  12       -2.9240
  13       -2.9239
  14       -2.9238
  15       -2.9222
  16       -2.9221
  17       -2.9220
  18       -2.9220
  19       -2.8575
  20       -2.8575
  21       -2.8557
  22       -2.8557
  23       -2.4712
  24       -2.4706
  25       -2.4697
  26       -2.4697
  27       -2.4692
  28       -2.4692
  29       -2.4683
  30       -2.4677
  31       -2.4255
  32       -2.4234
  33       -2.4234
  34       -2.4234
  35       -2.4233
  36       -2.4233
  37       -2.4233
  38       -2.4212
  39       -2.3994
  40       -2.3992
  41       -2.3992
  42       -2.3984
  43       -2.3980
  44       -2.3973
  45       -2.3973
  46       -2.3971
  47       -2.1075
  48       -2.1069
  49       -2.1069
  50       -2.1065
  51       -2.1065
  52       -2.1061
  53       -2.1061
  54       -2.1055
  55       -2.0903
  56       -2.0897
  57       -2.0791
  58       -2.0779
  59       -2.0779
  60       -2.0777
  61       -2.0773
  62       -2.0771
  63       -2.0771
  64       -2.0757
  65       -1.9831
  66       -1.9829
  67       -1.9828
  68       -1.9828
  69       -1.9825
  70       -1.9825
  71       -1.9824
  72       -1.9822
  73       -1.8170
  74       -1.8168
  75       -1.8168
  76       -1.8160
  77       -1.8159
  78       -1.8152
  79       -1.8152
  80       -1.8151
  81       -1.7190
  82       -1.7186
  83       -1.7186
  84       -1.7177
  85       -1.7173
  86       -1.7165
  87       -1.7165
  88       -1.7160
  89       -1.7015
  90       -1.7015
  91       -1.6999
  92       -1.6999
  93       -1.2288
  94       -1.2279
  95       -1.1791
  96       -1.1791
  97       -1.1789
  98       -1.1788
  99       -1.1787
 100       -1.1785
 101       -1.1784
 102       -1.1784
 103       -1.0732
 104       -1.0731
 105       -1.0726
 106       -1.0726
 107       -1.0724
 108       -1.0724
 109       -1.0719
 110       -1.0718
 111       -0.9986
 112       -0.9979
 113       -0.9979
 114       -0.9977
 115       -0.9974
 116       -0.9973
 117       -0.9973
 118       -0.9967
 119       -0.9897
 120       -0.9893
 121       -0.9893
 122       -0.9889
 123       -0.9888
 124       -0.9886
 125       -0.9886
 126       -0.9881
 127       -0.9734
 128       -0.9734
 129       -0.9723
 130       -0.9723
 131       -0.9667
 132       -0.9654
 133       -0.6836
 134       -0.6835
 135       -0.6834
 136       -0.6833
 137       -0.6336
 138       -0.6332
 139       -0.6332
 140       -0.6331
 141       -0.6324
 142       -0.6323
 143       -0.6323
 144       -0.6319
 145       -0.5535
 146       -0.5535
 147       -0.5527
 148       -0.5527
 149       -0.5523
 150       -0.5522
 151       -0.5515
 152       -0.5515
 153       -0.5427
 154       -0.5427
 155       -0.5422
 156       -0.5422
 157       -0.5268
 158       -0.5266
 159       -0.2364
 160       -0.2359
 161       -0.2359
 162       -0.2354
 163        0.1550
 164        0.1552
 165        0.1558
 166        0.1558
 167        0.1558
 168        0.1558
 169        0.1564
 170        0.1566
 171        1.6533
 172        1.6538
 173        2.0985
 174        2.0997
 175        2.1000
 176        2.1000
 177        2.1008
 178        2.1008
 179        2.1010
 180        2.1022
 181        4.7375
 182        4.7375
 183        4.7377
 184        4.7388
 185        4.7394
 186        4.7404
 187        4.7406
 188        4.7406
 189        5.5145
 190        5.5145
 191        5.5168
 192        5.5168
 193        7.3803
 194        7.3803
 195        7.3808
 196        7.3817
 197        7.3825
 198        7.3833
 199        7.3838
 200        7.3838
 201        8.5778
 202        8.5780
 203        8.5781
 204        8.5783
 205        8.9538
 206        8.9538
 207        8.9549
 208        8.9551
 209        8.9556
 210        8.9557
 211        8.9569
 212        8.9569
 213        9.8117
 214        9.8119
 215        9.8121
 216        9.8125
 
  0.0000000E+00  0.8333333E-01  0.0000000E+00  0.2314815E-02
   1       -4.3891
   2       -3.2107
   3       -3.2088
   4       -3.2088
   5       -3.1864
   6       -3.1864
   7       -3.1863
   8       -3.1863
   9       -3.1134
  10       -3.1109
  11       -3.1109
  12       -2.8914
  13       -2.7933
  14       -2.7921
  15       -2.7921
  16       -2.7910
  17       -2.7724
  18       -2.6152
  19       -2.6025
  20       -2.6025
  21       -2.5823
  22       -2.5814
  23       -2.5813
  24       -2.5803
  25       -2.5332
  26       -2.5320
  27       -2.5320
  28       -2.5308
  29       -2.4561
  30       -2.3802