       N       E                     dE             d eps       ncg     rms          rms(c)
DAV:   1     0.417662364765E+04    0.41766E+04   -0.21131E+05 84720   0.222E+03
DAV:   2     0.114245089360E+03   -0.40624E+04   -0.38725E+04 84672   0.532E+02
DAV:   3    -0.924608835330E+02   -0.20671E+03   -0.19777E+03 89264   0.144E+02
DAV:   4    -0.964326112244E+02   -0.39717E+01   -0.39459E+01 91096   0.193E+01
DAV:   5    -0.964550512178E+02   -0.22440E-01   -0.22416E-01 89952   0.120E+00    0.149E+01
DAV:   6    -0.901523155791E+02    0.63027E+01   -0.24445E+01 89120   0.188E+01    0.271E+00
DAV:   7    -0.900286562501E+02    0.12366E+00   -0.42024E-01 88232   0.161E+00    0.152E+00
DAV:   8    -0.899636882827E+02    0.64968E-01   -0.36918E-02 89320   0.757E-01    0.114E-01
DAV:   9    -0.899646478171E+02   -0.95953E-03   -0.19943E-03 89936   0.134E-01    0.706E-02
DAV:  10    -0.899645779948E+02    0.69822E-04   -0.16811E-04 88880   0.397E-02    0.100E-02
DAV:  11    -0.899645730811E+02    0.49138E-05   -0.65759E-06 90352   0.765E-03    0.250E-03
DAV:  12    -0.899645696339E+02    0.34472E-05   -0.28336E-07 89088   0.211E-03    0.732E-04
DAV:  13    -0.899645676007E+02    0.20331E-05   -0.47310E-08 78584   0.788E-04    0.135E-04
DAV:  14    -0.899645674792E+02    0.12151E-06   -0.63278E-10 47128   0.125E-04    0.685E-05
DAV:  15    -0.899645674944E+02   -0.15192E-07    0.24704E-10 46664   0.491E-05    0.312E-05
DAV:  16    -0.899645674897E+02    0.47803E-08    0.41342E-10 46368   0.329E-05
   1 F= -.89964567E+02 E0= -.89964496E+02  d E =-.142582E-03
