 vasp.4.6.28 25Jul05 complex 
 executed on             LinuxIFC date 2017.01.11  09:12:48
 running on    8 nodes
 distr:  one band on    1 nodes,    8 groups


--------------------------------------------------------------------------------------------------------


 INCAR:
 POTCAR:   PAW_PBE Ag 06Sep2000                   
 POTCAR:   PAW_PBE Ag 06Sep2000                   
   VRHFIN =Ag : s1 d10                                                          
   LEXCH  = PE                                                                  
   EATOM  =  1037.4134 eV,   76.2477 Ry                                         
                                                                                
   TITEL  = PAW_PBE Ag 06Sep2000                                                
   LULTRA =        F    use ultrasoft PP ?                                      
   IUNSCR =        1    unscreen: 0-lin 1-nonlin 2-no                           
   RPACOR =    2.000    partial core radius                                     
   POMASS =  107.868; ZVAL   =   11.000    mass and valenz                      
   RCORE  =    2.400    outmost cutoff radius                                   
   RWIGS  =    2.840; RWIGS  =    1.503    wigner-seitz radius (au A)           
   ENMAX  =  249.846; ENMIN  =  187.385 eV                                      
   RCLOC  =    1.962    cutoff for local pot                                    
   LCOR   =        T    correct aug charges                                     
   LPAW   =        T    paw PP                                                  
   EAUG   =  412.496                                                            
   DEXC   =    -.047                                                            
   RMAX   =    2.917    core radius for proj-oper                               
   RAUG   =    1.300    factor for augmentation sphere                          
   RDEP   =    2.416    radius for radial grids                                 
   QCUT   =   -4.285; QGAM   =    8.570    optimization parameters              
                                                                                
   Description                                                                  
     l     E      TYP  RCUT    TYP  RCUT                                        
     2   .000     23  2.400                                                     
     2   .000     23  2.400                                                     
     0   .000     23  2.400                                                     
     0   .000     23  2.400                                                     
     1  -.200     23  2.400                                                     
     1  1.500     23  2.400                                                     
     3   .000      7   .000                                                     
  local pseudopotential read in
  partial core-charges read in
  atomic valenz-charges read in
  non local Contribution for L=           2  read in
    real space projection operators read in
  non local Contribution for L=           2  read in
    real space projection operators read in
  non local Contribution for L=           0  read in
    real space projection operators read in
  non local Contribution for L=           0  read in
    real space projection operators read in
  non local Contribution for L=           1  read in
    real space projection operators read in
  non local Contribution for L=           1  read in
    real space projection operators read in
    PAW grid and wavefunctions read in
 
   number of l-projection  operators is LMAX  =           6
   number of lm-projection operators is LMMAX =          18
 

 ----------------------------------------------------------------------------- 
|                                                                             |
|  ADVICE TO THIS USER RUNNING 'VASP/VAMP'   (HEAR YOUR MASTER'S VOICE ...):  |
|                                                                             |
|      You have a (more or less) 'large supercell' and for larger cells       |
|      it might be more efficient to use real space projection operators      |
|      So try LREAL= Auto  in the INCAR   file.                               |
|      Mind: If you want to do an extremely accurate calculations keep the    |
|      reciprocal projection scheme          (i.e. LREAL=.FALSE.)             |
|                                                                             |
 ----------------------------------------------------------------------------- 

 PAW_PBE Ag 06Sep2000                   :
 energy of atom  1       EATOM=-1037.4134
 kinetic energy error for atom=    0.0010 (will be added to EATOM!!)
 
 EXHCAR: internal setup
 exchange correlation table for  LEXCH =        8
   RHO(1)=    0.500       N(1)  =     2000
   RHO(2)=  100.500       N(2)  =     4000
 
 POSCAR: Ag                                      
  positions in direct lattice
  No initial velocities read in
 


--------------------------------------------------------------------------------------------------------


 ion  position               nearest neighbor table
   1  0.001  0.000  0.000-   9 3.00  11 3.00  17 3.00  21 3.00  25 3.00  27 3.00  29 3.00  31 3.00
                            10 3.01  18 3.01  12 3.01  22 3.01
   2  0.500  0.000  0.000-   9 3.00  10 3.00  11 3.00  12 3.00  17 3.00  18 3.00  21 3.00  22 3.00
                            26 3.00  28 3.00  30 3.00  32 3.00
   3  0.000  0.500  0.000-   9 3.00  10 3.00  11 3.00  12 3.00  19 3.00  20 3.00  23 3.00  24 3.00
                            25 3.00  27 3.00  29 3.00  31 3.00
   4  0.500  0.500  0.000-   9 3.00  10 3.00  11 3.00  12 3.00  19 3.00  20 3.00  23 3.00  24 3.00
                            26 3.00  28 3.00  30 3.00  32 3.00
   5  0.000  0.000  0.500-  13 3.00  14 3.00  15 3.00  16 3.00  17 3.00  18 3.00  21 3.00  22 3.00
                            25 3.00  27 3.00  29 3.00  31 3.00
   6  0.500  0.000  0.500-  13 3.00  14 3.00  15 3.00  16 3.00  17 3.00  18 3.00  21 3.00  22 3.00
                            26 3.00  28 3.00  30 3.00  32 3.00
   7  0.000  0.500  0.500-  13 3.00  14 3.00  15 3.00  16 3.00  19 3.00  20 3.00  23 3.00  24 3.00
                            25 3.00  27 3.00  29 3.00  31 3.00
   8  0.500  0.500  0.500-  13 3.00  14 3.00  15 3.00  16 3.00  19 3.00  20 3.00  23 3.00  24 3.00
                            26 3.00  28 3.00  30 3.00  32 3.00
   9  0.250  0.250  0.000-   1 3.00   2 3.00   3 3.00   4 3.00  17 3.00  19 3.00  21 3.00  23 3.00
                            25 3.00  26 3.00  29 3.00  30 3.00
  10  0.750  0.250  0.000-   2 3.00   3 3.00   4 3.00  18 3.00  20 3.00  22 3.00  24 3.00  25 3.00
                            26 3.00  29 3.00  30 3.00   1 3.01
  11  0.250  0.750  0.000-   1 3.00   2 3.00   3 3.00   4 3.00  17 3.00  19 3.00  21 3.00  23 3.00
                            27 3.00  28 3.00  31 3.00  32 3.00
  12  0.750  0.750  0.000-   2 3.00   3 3.00   4 3.00  18 3.00  20 3.00  22 3.00  24 3.00  27 3.00
                            28 3.00  31 3.00  32 3.00   1 3.01
  13  0.250  0.250  0.500-   5 3.00   6 3.00   7 3.00   8 3.00  17 3.00  19 3.00  21 3.00  23 3.00
                            25 3.00  26 3.00  29 3.00  30 3.00
  14  0.750  0.250  0.500-   5 3.00   6 3.00   7 3.00   8 3.00  18 3.00  20 3.00  22 3.00  24 3.00
                            25 3.00  26 3.00  29 3.00  30 3.00
  15  0.250  0.750  0.500-   5 3.00   6 3.00   7 3.00   8 3.00  17 3.00  19 3.00  21 3.00  23 3.00
                            27 3.00  28 3.00  31 3.00  32 3.00
  16  0.750  0.750  0.500-   5 3.00   6 3.00   7 3.00   8 3.00  18 3.00  20 3.00  22 3.00  24 3.00
                            27 3.00  28 3.00  31 3.00  32 3.00
  17  0.250  0.000  0.250-   1 3.00   2 3.00   5 3.00   6 3.00   9 3.00  11 3.00  13 3.00  15 3.00
                            25 3.00  26 3.00  27 3.00  28 3.00
  18  0.750  0.000  0.250-   2 3.00   5 3.00   6 3.00  10 3.00  12 3.00  14 3.00  16 3.00  25 3.00
                            26 3.00  27 3.00  28 3.00   1 3.01
  19  0.250  0.500  0.250-   3 3.00   4 3.00   7 3.00   8 3.00   9 3.00  11 3.00  13 3.00  15 3.00
                            25 3.00  26 3.00  27 3.00  28 3.00
  20  0.750  0.500  0.250-   3 3.00   4 3.00   7 3.00   8 3.00  10 3.00  12 3.00  14 3.00  16 3.00
                            25 3.00  26 3.00  27 3.00  28 3.00
  21  0.250  0.000  0.750-   1 3.00   2 3.00   5 3.00   6 3.00   9 3.00  11 3.00  13 3.00  15 3.00
                            29 3.00  30 3.00  31 3.00  32 3.00
  22  0.750  0.000  0.750-   2 3.00   5 3.00   6 3.00  10 3.00  12 3.00  14 3.00  16 3.00  29 3.00
                            30 3.00  31 3.00  32 3.00   1 3.01
  23  0.250  0.500  0.750-   3 3.00   4 3.00   7 3.00   8 3.00   9 3.00  11 3.00  13 3.00  15 3.00
                            29 3.00  30 3.00  31 3.00  32 3.00
  24  0.750  0.500  0.750-   3 3.00   4 3.00   7 3.00   8 3.00  10 3.00  12 3.00  14 3.00  16 3.00
                            29 3.00  30 3.00  31 3.00  32 3.00
  25  0.000  0.250  0.250-   3 3.00   5 3.00   7 3.00   9 3.00  10 3.00  13 3.00  14 3.00  17 3.00
                            18 3.00  19 3.00  20 3.00   1 3.00
  26  0.500  0.250  0.250-   2 3.00   4 3.00   6 3.00   8 3.00   9 3.00  10 3.00  13 3.00  14 3.00
                            17 3.00  18 3.00  19 3.00  20 3.00
  27  0.000  0.750  0.250-   3 3.00   5 3.00   7 3.00  11 3.00  12 3.00  15 3.00  16 3.00  17 3.00
                            18 3.00  19 3.00  20 3.00   1 3.00
  28  0.500  0.750  0.250-   2 3.00   4 3.00   6 3.00   8 3.00  11 3.00  12 3.00  15 3.00  16 3.00
                            17 3.00  18 3.00  19 3.00  20 3.00
  29  0.000  0.250  0.750-   3 3.00   5 3.00   7 3.00   9 3.00  10 3.00  13 3.00  14 3.00  21 3.00
                            22 3.00  23 3.00  24 3.00   1 3.00
  30  0.500  0.250  0.750-   2 3.00   4 3.00   6 3.00   8 3.00   9 3.00  10 3.00  13 3.00  14 3.00
                            21 3.00  22 3.00  23 3.00  24 3.00
  31  0.000  0.750  0.750-   3 3.00   5 3.00   7 3.00  11 3.00  12 3.00  15 3.00  16 3.00  21 3.00
                            22 3.00  23 3.00  24 3.00   1 3.00
  32  0.500  0.750  0.750-   2 3.00   4 3.00   6 3.00   8 3.00  11 3.00  12 3.00  15 3.00  16 3.00
                            21 3.00  22 3.00  23 3.00  24 3.00
 
  LATTYP: Found a simple cubic cell.
 ALAT       =     8.4929785545
  
  Lattice vectors:
  
 A1 = (   8.4929785545,   0.0000000000,   0.0000000000)
 A2 = (   0.0000000000,   8.4929785545,   0.0000000000)
 A3 = (   0.0000000000,   0.0000000000,   8.4929785545)
 Subroutine PRICEL returns:
 Original cell was already a primitive cell.
 

Analysis of symmetry for initial positions (statically):

 Routine SETGRP: Setting up the symmetry group for a 
 simple cubic supercell.


 Subroutine GETGRP returns: Found  8 space group operations
 (whereof  8 operations were pure point group operations)
 out of a pool of 48 trial point group operations.


The static configuration has the point symmetry C_4v.

Analysis of symmetry for dynamics (positions and initial velocities):

 Subroutine DYNSYM returns: Found  8 space group operations
 (whereof  8 operations were pure point group operations)
 out of a pool of  8 trial space group operations
 (whereof  8 operations were pure point group operations)
 and found also     1 'primitive' translations


The dynamic configuration has the point symmetry C_4v.
 
 
 KPOINTS: Automatic mesh                          

Automatic generation of k-mesh.
 
 Subroutine IBZKPT returns following result:
 ===========================================
 
 Found    196 irreducible k-points:
 
 Following reciprocal coordinates:
            Coordinates               Weight
  0.000000  0.000000  0.000000      1.000000
  0.083333  0.000000  0.000000      2.000000
  0.166667  0.000000  0.000000      2.000000
  0.250000  0.000000  0.000000      2.000000
  0.333333  0.000000  0.000000      2.000000
  0.416667  0.000000  0.000000      2.000000
  0.500000  0.000000  0.000000      1.000000
  0.000000  0.083333  0.000000      4.000000
  0.083333  0.083333  0.000000      8.000000
  0.166667  0.083333  0.000000      8.000000
  0.250000  0.083333  0.000000      8.000000
  0.333333  0.083333  0.000000      8.000000
  0.416667  0.083333  0.000000      8.000000
  0.500000  0.083333  0.000000      4.000000
  0.000000  0.166667  0.000000      4.000000
  0.083333  0.166667  0.000000      8.000000
  0.166667  0.166667  0.000000      8.000000
  0.250000  0.166667  0.000000      8.000000
  0.333333  0.166667  0.000000      8.000000
  0.416667  0.166667  0.000000      8.000000
  0.500000  0.166667  0.000000      4.000000
  0.000000  0.250000  0.000000      4.000000
  0.083333  0.250000  0.000000      8.000000
  0.166667  0.250000  0.000000      8.000000
  0.250000  0.250000  0.000000      8.000000
  0.333333  0.250000  0.000000      8.000000
  0.416667  0.250000  0.000000      8.000000
  0.500000  0.250000  0.000000      4.000000
  0.000000  0.333333  0.000000      4.000000
  0.083333  0.333333  0.000000      8.000000
  0.166667  0.333333  0.000000      8.000000
  0.250000  0.333333  0.000000      8.000000
  0.333333  0.333333  0.000000      8.000000
  0.416667  0.333333  0.000000      8.000000
  0.500000  0.333333  0.000000      4.000000
  0.000000  0.416667  0.000000      4.000000
  0.083333  0.416667  0.000000      8.000000
  0.166667  0.416667  0.000000      8.000000
  0.250000  0.416667  0.000000      8.000000
  0.333333  0.416667  0.000000      8.000000
  0.416667  0.416667  0.000000      8.000000
  0.500000  0.416667  0.000000      4.000000
  0.000000  0.500000  0.000000      2.000000
  0.083333  0.500000  0.000000      4.000000
  0.166667  0.500000  0.000000      4.000000
  0.250000  0.500000  0.000000      4.000000
  0.333333  0.500000  0.000000      4.000000
  0.416667  0.500000  0.000000      4.000000
  0.500000  0.500000  0.000000      2.000000
  0.000000  0.083333  0.083333      4.000000
  0.083333  0.083333  0.083333      8.000000
  0.166667  0.083333  0.083333      8.000000
  0.250000  0.083333  0.083333      8.000000
  0.333333  0.083333  0.083333      8.000000
  0.416667  0.083333  0.083333      8.000000
  0.500000  0.083333  0.083333      4.000000
  0.000000  0.166667  0.083333      8.000000
  0.083333  0.166667  0.083333     16.000000
  0.166667  0.166667  0.083333     16.000000
  0.250000  0.166667  0.083333     16.000000
  0.333333  0.166667  0.083333     16.000000
  0.416667  0.166667  0.083333     16.000000
  0.500000  0.166667  0.083333      8.000000
  0.000000  0.250000  0.083333      8.000000
  0.083333  0.250000  0.083333     16.000000
  0.166667  0.250000  0.083333     16.000000
  0.250000  0.250000  0.083333     16.000000
  0.333333  0.250000  0.083333     16.000000
  0.416667  0.250000  0.083333     16.000000
  0.500000  0.250000  0.083333      8.000000
  0.000000  0.333333  0.083333      8.000000
  0.083333  0.333333  0.083333     16.000000
  0.166667  0.333333  0.083333     16.000000
  0.250000  0.333333  0.083333     16.000000
  0.333333  0.333333  0.083333     16.000000
  0.416667  0.333333  0.083333     16.000000
  0.500000  0.333333  0.083333      8.000000
  0.000000  0.416667  0.083333      8.000000
  0.083333  0.416667  0.083333     16.000000
  0.166667  0.416667  0.083333     16.000000
  0.250000  0.416667  0.083333     16.000000
  0.333333  0.416667  0.083333     16.000000
  0.416667  0.416667  0.083333     16.000000
  0.500000  0.416667  0.083333      8.000000
  0.000000  0.500000  0.083333      4.000000
  0.083333  0.500000  0.083333      8.000000
  0.166667  0.500000  0.083333      8.000000
  0.250000  0.500000  0.083333      8.000000
  0.333333  0.500000  0.083333      8.000000
  0.416667  0.500000  0.083333      8.000000
  0.500000  0.500000  0.083333      4.000000
  0.000000  0.166667  0.166667      4.000000
  0.083333  0.166667  0.166667      8.000000
  0.166667  0.166667  0.166667      8.000000
  0.250000  0.166667  0.166667      8.000000
  0.333333  0.166667  0.166667      8.000000
  0.416667  0.166667  0.166667      8.000000
  0.500000  0.166667  0.166667      4.000000
  0.000000  0.250000  0.166667      8.000000
  0.083333  0.250000  0.166667     16.000000
  0.166667  0.250000  0.166667     16.000000
  0.250000  0.250000  0.166667     16.000000
  0.333333  0.250000  0.166667     16.000000
  0.416667  0.250000  0.166667     16.000000
  0.500000  0.250000  0.166667      8.000000
  0.000000  0.333333  0.166667      8.000000
  0.083333  0.333333  0.166667     16.000000
  0.166667  0.333333  0.166667     16.000000
  0.250000  0.333333  0.166667     16.000000
  0.333333  0.333333  0.166667     16.000000
  0.416667  0.333333  0.166667     16.000000
  0.500000  0.333333  0.166667      8.000000
  0.000000  0.416667  0.166667      8.000000
  0.083333  0.416667  0.166667     16.000000
  0.166667  0.416667  0.166667     16.000000
  0.250000  0.416667  0.166667     16.000000
  0.333333  0.416667  0.166667     16.000000
  0.416667  0.416667  0.166667     16.000000
  0.500000  0.416667  0.166667      8.000000
  0.000000  0.500000  0.166667      4.000000
  0.083333  0.500000  0.166667      8.000000
  0.166667  0.500000  0.166667      8.000000
  0.250000  0.500000  0.166667      8.000000
  0.333333  0.500000  0.166667      8.000000
  0.416667  0.500000  0.166667      8.000000
  0.500000  0.500000  0.166667      4.000000
  0.000000  0.250000  0.250000      4.000000
  0.083333  0.250000  0.250000      8.000000
  0.166667  0.250000  0.250000      8.000000
  0.250000  0.250000  0.250000      8.000000
  0.333333  0.250000  0.250000      8.000000
  0.416667  0.250000  0.250000      8.000000
  0.500000  0.250000  0.250000      4.000000
  0.000000  0.333333  0.250000      8.000000
  0.083333  0.333333  0.250000     16.000000
  0.166667  0.333333  0.250000     16.000000
  0.250000  0.333333  0.250000     16.000000
  0.333333  0.333333  0.250000     16.000000
  0.416667  0.333333  0.250000     16.000000
  0.500000  0.333333  0.250000      8.000000
  0.000000  0.416667  0.250000      8.000000
  0.083333  0.416667  0.250000     16.000000
  0.166667  0.416667  0.250000     16.000000
  0.250000  0.416667  0.250000     16.000000
  0.333333  0.416667  0.250000     16.000000
  0.416667  0.416667  0.250000     16.000000
  0.500000  0.416667  0.250000      8.000000
  0.000000  0.500000  0.250000      4.000000
  0.083333  0.500000  0.250000      8.000000
  0.166667  0.500000  0.250000      8.000000
  0.250000  0.500000  0.250000      8.000000
  0.333333  0.500000  0.250000      8.000000
  0.416667  0.500000  0.250000      8.000000
  0.500000  0.500000  0.250000      4.000000
  0.000000  0.333333  0.333333      4.000000
  0.083333  0.333333  0.333333      8.000000
  0.166667  0.333333  0.333333      8.000000
  0.250000  0.333333  0.333333      8.000000
  0.333333  0.333333  0.333333      8.000000
  0.416667  0.333333  0.333333      8.000000
  0.500000  0.333333  0.333333      4.000000
  0.000000  0.416667  0.333333      8.000000
  0.083333  0.416667  0.333333     16.000000
  0.166667  0.416667  0.333333     16.000000
  0.250000  0.416667  0.333333     16.000000
  0.333333  0.416667  0.333333     16.000000
  0.416667  0.416667  0.333333     16.000000
  0.500000  0.416667  0.333333      8.000000
  0.000000  0.500000  0.333333      4.000000
  0.083333  0.500000  0.333333      8.000000
  0.166667  0.500000  0.333333      8.000000
  0.250000  0.500000  0.333333      8.000000
  0.333333  0.500000  0.333333      8.000000
  0.416667  0.500000  0.333333      8.000000
  0.500000  0.500000  0.333333      4.000000
  0.000000  0.416667  0.416667      4.000000
  0.083333  0.416667  0.416667      8.000000
  0.166667  0.416667  0.416667      8.000000
  0.250000  0.416667  0.416667      8.000000
  0.333333  0.416667  0.416667      8.000000
  0.416667  0.416667  0.416667      8.000000
  0.500000  0.416667  0.416667      4.000000
  0.000000  0.500000  0.416667      4.000000
  0.083333  0.500000  0.416667      8.000000
  0.166667  0.500000  0.416667      8.000000
  0.250000  0.500000  0.416667      8.000000
  0.333333  0.500000  0.416667      8.000000
  0.416667  0.500000  0.416667      8.000000
  0.500000  0.500000  0.416667      4.000000
  0.000000  0.500000  0.500000      1.000000
  0.083333  0.500000  0.500000      2.000000
  0.166667  0.500000  0.500000      2.000000
  0.250000  0.500000  0.500000      2.000000
  0.333333  0.500000  0.500000      2.000000
  0.416667  0.500000  0.500000      2.000000
  0.500000  0.500000  0.500000      1.000000
 
 Following cartesian coordinates:
            Coordinates               Weight
  0.000000  0.000000  0.000000      1.000000
  0.009812  0.000000  0.000000      2.000000
  0.019624  0.000000  0.000000      2.000000
  0.029436  0.000000  0.000000      2.000000
  0.039248  0.000000  0.000000      2.000000
  0.049060  0.000000  0.000000      2.000000
  0.058872  0.000000  0.000000      1.000000
  0.000000  0.009812  0.000000      4.000000
  0.009812  0.009812  0.000000      8.000000
  0.019624  0.009812  0.000000      8.000000
  0.029436  0.009812  0.000000      8.000000
  0.039248  0.009812  0.000000      8.000000
  0.049060  0.009812  0.000000      8.000000
  0.058872  0.009812  0.000000      4.000000
  0.000000  0.019624  0.000000      4.000000
  0.009812  0.019624  0.000000      8.000000
  0.019624  0.019624  0.000000      8.000000
  0.029436  0.019624  0.000000      8.000000
  0.039248  0.019624  0.000000      8.000000
  0.049060  0.019624  0.000000      8.000000
  0.058872  0.019624  0.000000      4.000000
  0.000000  0.029436  0.000000      4.000000
  0.009812  0.029436  0.000000      8.000000
  0.019624  0.029436  0.000000      8.000000
  0.029436  0.029436  0.000000      8.000000
  0.039248  0.029436  0.000000      8.000000
  0.049060  0.029436  0.000000      8.000000
  0.058872  0.029436  0.000000      4.000000
  0.000000  0.039248  0.000000      4.000000
  0.009812  0.039248  0.000000      8.000000
  0.019624  0.039248  0.000000      8.000000
  0.029436  0.039248  0.000000      8.000000
  0.039248  0.039248  0.000000      8.000000
  0.049060  0.039248  0.000000      8.000000
  0.058872  0.039248  0.000000      4.000000
  0.000000  0.049060  0.000000      4.000000
  0.009812  0.049060  0.000000      8.000000
  0.019624  0.049060  0.000000      8.000000
  0.029436  0.049060  0.000000      8.000000
  0.039248  0.049060  0.000000      8.000000
  0.049060  0.049060  0.000000      8.000000
  0.058872  0.049060  0.000000      4.000000
  0.000000  0.058872  0.000000      2.000000
  0.009812  0.058872  0.000000      4.000000
  0.019624  0.058872  0.000000      4.000000
  0.029436  0.058872  0.000000      4.000000
  0.039248  0.058872  0.000000      4.000000
  0.049060  0.058872  0.000000      4.000000
  0.058872  0.058872  0.000000      2.000000
  0.000000  0.009812  0.009812      4.000000
  0.009812  0.009812  0.009812      8.000000
  0.019624  0.009812  0.009812      8.000000
  0.029436  0.009812  0.009812      8.000000
  0.039248  0.009812  0.009812      8.000000
  0.049060  0.009812  0.009812      8.000000
  0.058872  0.009812  0.009812      4.000000
  0.000000  0.019624  0.009812      8.000000
  0.009812  0.019624  0.009812     16.000000
  0.019624  0.019624  0.009812     16.000000
  0.029436  0.019624  0.009812     16.000000
  0.039248  0.019624  0.009812     16.000000
  0.049060  0.019624  0.009812     16.000000
  0.058872  0.019624  0.009812      8.000000
  0.000000  0.029436  0.009812      8.000000
  0.009812  0.029436  0.009812     16.000000
  0.019624  0.029436  0.009812     16.000000
  0.029436  0.029436  0.009812     16.000000
  0.039248  0.029436  0.009812     16.000000
  0.049060  0.029436  0.009812     16.000000
  0.058872  0.029436  0.009812      8.000000
  0.000000  0.039248  0.009812      8.000000
  0.009812  0.039248  0.009812     16.000000
  0.019624  0.039248  0.009812     16.000000
  0.029436  0.039248  0.009812     16.000000
  0.039248  0.039248  0.009812     16.000000
  0.049060  0.039248  0.009812     16.000000
  0.058872  0.039248  0.009812      8.000000
  0.000000  0.049060  0.009812      8.000000
  0.009812  0.049060  0.009812     16.000000
  0.019624  0.049060  0.009812     16.000000
  0.029436  0.049060  0.009812     16.000000
  0.039248  0.049060  0.009812     16.000000
  0.049060  0.049060  0.009812     16.000000
  0.058872  0.049060  0.009812      8.000000
  0.000000  0.058872  0.009812      4.000000
  0.009812  0.058872  0.009812      8.000000
  0.019624  0.058872  0.009812      8.000000
  0.029436  0.058872  0.009812      8.000000
  0.039248  0.058872  0.009812      8.000000
  0.049060  0.058872  0.009812      8.000000
  0.058872  0.058872  0.009812      4.000000
  0.000000  0.019624  0.019624      4.000000
  0.009812  0.019624  0.019624      8.000000
  0.019624  0.019624  0.019624      8.000000
  0.029436  0.019624  0.019624      8.000000
  0.039248  0.019624  0.019624      8.000000
  0.049060  0.019624  0.019624      8.000000
  0.058872  0.019624  0.019624      4.000000
  0.000000  0.029436  0.019624      8.000000
  0.009812  0.029436  0.019624     16.000000
  0.019624  0.029436  0.019624     16.000000
  0.029436  0.029436  0.019624     16.000000
  0.039248  0.029436  0.019624     16.000000
  0.049060  0.029436  0.019624     16.000000
  0.058872  0.029436  0.019624      8.000000
  0.000000  0.039248  0.019624      8.000000
  0.009812  0.039248  0.019624     16.000000
  0.019624  0.039248  0.019624     16.000000
  0.029436  0.039248  0.019624     16.000000
  0.039248  0.039248  0.019624     16.000000
  0.049060  0.039248  0.019624     16.000000
  0.058872  0.039248  0.019624      8.000000
  0.000000  0.049060  0.019624      8.000000
  0.009812  0.049060  0.019624     16.000000
  0.019624  0.049060  0.019624     16.000000
  0.029436  0.049060  0.019624     16.000000
  0.039248  0.049060  0.019624     16.000000
  0.049060  0.049060  0.019624     16.000000
  0.058872  0.049060  0.019624      8.000000
  0.000000  0.058872  0.019624      4.000000
  0.009812  0.058872  0.019624      8.000000
  0.019624  0.058872  0.019624      8.000000
  0.029436  0.058872  0.019624      8.000000
  0.039248  0.058872  0.019624      8.000000
  0.049060  0.058872  0.019624      8.000000
  0.058872  0.058872  0.019624      4.000000
  0.000000  0.029436  0.029436      4.000000
  0.009812  0.029436  0.029436      8.000000
  0.019624  0.029436  0.029436      8.000000
  0.029436  0.029436  0.029436      8.000000
  0.039248  0.029436  0.029436      8.000000
  0.049060  0.029436  0.029436      8.000000
  0.058872  0.029436  0.029436      4.000000
  0.000000  0.039248  0.029436      8.000000
  0.009812  0.039248  0.029436     16.000000
  0.019624  0.039248  0.029436     16.000000
  0.029436  0.039248  0.029436     16.000000
  0.039248  0.039248  0.029436     16.000000
  0.049060  0.039248  0.029436     16.000000
  0.058872  0.039248  0.029436      8.000000
  0.000000  0.049060  0.029436      8.000000
  0.009812  0.049060  0.029436     16.000000
  0.019624  0.049060  0.029436     16.000000
  0.029436  0.049060  0.029436     16.000000
  0.039248  0.049060  0.029436     16.000000
  0.049060  0.049060  0.029436     16.000000
  0.058872  0.049060  0.029436      8.000000
  0.000000  0.058872  0.029436      4.000000
  0.009812  0.058872  0.029436      8.000000
  0.019624  0.058872  0.029436      8.000000
  0.029436  0.058872  0.029436      8.000000
  0.039248  0.058872  0.029436      8.000000
  0.049060  0.058872  0.029436      8.000000
  0.058872  0.058872  0.029436      4.000000
  0.000000  0.039248  0.039248      4.000000
  0.009812  0.039248  0.039248      8.000000
  0.019624  0.039248  0.039248      8.000000
  0.029436  0.039248  0.039248      8.000000
  0.039248  0.039248  0.039248      8.000000
  0.049060  0.039248  0.039248      8.000000
  0.058872  0.039248  0.039248      4.000000
  0.000000  0.049060  0.039248      8.000000
  0.009812  0.049060  0.039248     16.000000
  0.019624  0.049060  0.039248     16.000000
  0.029436  0.049060  0.039248     16.000000
  0.039248  0.049060  0.039248     16.000000
  0.049060  0.049060  0.039248     16.000000
  0.058872  0.049060  0.039248      8.000000
  0.000000  0.058872  0.039248      4.000000
  0.009812  0.058872  0.039248      8.000000
  0.019624  0.058872  0.039248      8.000000
  0.029436  0.058872  0.039248      8.000000
  0.039248  0.058872  0.039248      8.000000
  0.049060  0.058872  0.039248      8.000000
  0.058872  0.058872  0.039248      4.000000
  0.000000  0.049060  0.049060      4.000000
  0.009812  0.049060  0.049060      8.000000
  0.019624  0.049060  0.049060      8.000000
  0.029436  0.049060  0.049060      8.000000
  0.039248  0.049060  0.049060      8.000000
  0.049060  0.049060  0.049060      8.000000
  0.058872  0.049060  0.049060      4.000000
  0.000000  0.058872  0.049060      4.000000
  0.009812  0.058872  0.049060      8.000000
  0.019624  0.058872  0.049060      8.000000
  0.029436  0.058872  0.049060      8.000000
  0.039248  0.058872  0.049060      8.000000
  0.049060  0.058872  0.049060      8.000000
  0.058872  0.058872  0.049060      4.000000
  0.000000  0.058872  0.058872      1.000000
  0.009812  0.058872  0.058872      2.000000
  0.019624  0.058872  0.058872      2.000000
  0.029436  0.058872  0.058872      2.000000
  0.039248  0.058872  0.058872      2.000000
  0.049060  0.058872  0.058872      2.000000
  0.058872  0.058872  0.058872      1.000000
 


--------------------------------------------------------------------------------------------------------




 Dimension of arrays:
   k-Points           NKPTS =    196   number of bands    NBANDS=    216
   number of dos      NEDOS =    301   number of ions     NIONS =     32
   non local maximal  LDIM  =      6   non local SUM 2l+1 LMDIM =     18
   total plane-waves  NPLWV = 512000
   max r-space proj   IRMAX =      1   max aug-charges    IRDMAX= 328913
   dimension x,y,z NGX =    80 NGY =   80 NGZ =   80
   dimension x,y,z NGXF=   160 NGYF=  160 NGZF=  160
   support grid    NGXF=   320 NGYF=  320 NGZF=  320
   ions per type =              32
 NGX,Y,Z   is equivalent  to a cutoff of  15.66, 15.66, 15.66 a.u.
 NGXF,Y,Z  is equivalent  to a cutoff of  31.32, 31.32, 31.32 a.u.


 I would recommend the setting:
   dimension x,y,z NGX =    76 NGY =   76 NGZ =   76
 SYSTEM =  unknown system                          
 POSCAR =  Ag                                      

 Startparameter for this run:
   NWRITE =      2    write-flag & timer
   PREC   = accura    medium, high low
   ISTART =      0    job   : 0-new  1-cont  2-samecut
   ICHARG =      2    charge: 1-file 2-atom 10-const
   ISPIN  =      1    spin polarized calculation?
   LNONCOLLINEAR =      F non collinear calculations
   LSORBIT =      F    spin-orbit coupling
   INIWAV =      1    electr: 0-lowe 1-rand  2-diag
   LASPH  =      F    aspherical Exc in radial PAW
   METAGGA=      F    non-selfconsistent MetaGGA calc.

 Electronic Relaxation 1
   ENCUT  =  750.0 eV  55.12 Ry    7.42 a.u.  18.96 18.96 18.96*2*pi/ulx,y,z
   ENINI  =  750.0     initial cutoff
   ENAUG  =  412.5 eV  augmentation charge cutoff
   NELM   =     60;   NELMIN=  2; NELMDL=  0     # of ELM steps 
   EDIFF  = 0.1E-07   stopping-criterion for ELM
   LREAL  =      F    real-space projection
   LCOMPAT=      F    compatible to vasp.4.4
   LREAL_COMPAT= F    compatible to vasp.4.5.1-3
   GGA_COMPAT  = T    GGA compatible to vasp.4.4-vasp.4.6
   LMAXPAW     = -100 max onsite density
   LMAXMIX     =    2 max onsite mixed and CHGCAR
   VOSKOWN=      0    Vosko Wilk Nusair interpolation
   ROPT   =    0.00000
 Ionic relaxation
   EDIFFG = 0.1E-06   stopping-criterion for IOM
   NSW    =      0    number of steps for IOM
   NBLOCK =      1;   KBLOCK =      1    inner block; outer block 
   IBRION =     -1    ionic relax: 0-MD 1-quasi-New 2-CG
   NFREE  =      0    steps in history (QN), initial steepest desc. (CG)
   ISIF   =      2    stress and relaxation
   IWAVPR =     10    prediction:  0-non 1-charg 2-wave 3-comb
   ISYM   =      2    0-nonsym 1-usesym 2-fastsym
   LCORR  =      T    Harris-Foulkes like correction to forces

   POTIM  =   0.50    time-step for ionic-motion
   TEIN   =    0.0    initial temperature
   TEBEG  =    0.0;   TEEND  =   0.0 temperature during run
   SMASS  =  -3.00    Nose mass-parameter (am)
   estimated Nose-frequenzy (Omega)   =  0.10E-29 period in steps =****** mass=  -0.165E-26a.u.
   NPACO  =    256;   APACO  = 16.0  distance and # of slots for P.C.
   PSTRESS=    0.0 pullay stress

  Mass of Ions in am
   POMASS = 107.87
  Ionic Valenz
   ZVAL   =  11.00
  Atomic Wigner-Seitz radii
   RWIGS  =  -1.00
   NELECT =     352.0000    total number of electrons
   NUPDOWN=      -1.0000    fix difference up-down

 DOS related values:
   EMIN   =  10.00;   EMAX   =-10.00  energy-range for DOS
   ISMEAR =     0;   SIGMA  =   0.01  broadening in eV -4-tet -1-fermi 0-gaus

 Electronic relaxation 2 (details)
   IALGO  =     38    algorithm
   LDIAG  =      T    sub-space diagonalisation
   IMIX   =      4    mixing-type and parameters
     AMIX     =   0.40;   BMIX     =  1.00
     AMIX_MAG =   1.60;   BMIX_MAG =  1.00
     AMIN     =   0.10
     WC   =   100.;   INIMIX=   1;  MIXPRE=   1

 Intra band minimization:
   WEIMIN = 0.0000     energy-eigenvalue tresh-hold
   EBREAK =  0.12E-10  absolut break condition
   DEPER  =   0.30     relativ break condition  

   TIME   =   0.10     timestep for ELM

  volume/ion in A,a.u.               =      19.14       129.19
  Fermi-wavevector in a.u.,eV,Ry     =   1.361013 25.202848  1.852357

 Second variation
   LSECVAR=     F    do a second variation
 
 Write flags
   LWAVE  =      F    write WAVECAR
   LCHARG =      F    write CHGCAR
   LVTOT  =      F    write LOCPOT, local potential
   LELF   =      F    write electronic localiz. function (ELF)
   LORBIT =      0    0 simple, 1 ext, 2 COOP (PROOUT)


 Dipole corrections
   IDIPOL =      0    1-x, 2-y, 3-z
   LDIPOL =      F    correct potential



--------------------------------------------------------------------------------------------------------


 Static calculation
 charge density will be updated during run
 non-spin polarized calculation
 Variant of blocked Davidson
 Davidson routine will perform the subspace rotation
 performe sub-space diagonalisation
    after iterative eigenvector-optimisation
 modified Broyden-mixing scheme, WC =      100.0
 initial mixing is a Kerker type mixing with AMIX =  0.4000 and BMIX =      1.0000
 Hartree-type preconditioning will be used
 using additional bands           40
 reciprocal scheme for non local part
 use partial core corrections
 calculate Harris-corrections to forces 
   (improved forces if not selfconsistent)
 use gradient corrections 
 use of overlap-Matrix (Vanderbilt PP)
 Gauss-broadening in eV      SIGMA  =   0.01


--------------------------------------------------------------------------------------------------------


  energy-cutoff  :      750.00
  volume of cell :      612.60
      direct lattice vectors                 reciprocal lattice vectors
     8.492978554  0.000000000  0.000000000     0.117744322  0.000000000  0.000000000
     0.000000000  8.492978554  0.000000000     0.000000000  0.117744322  0.000000000
     0.000000000  0.000000000  8.492978554     0.000000000  0.000000000  0.117744322

  length of vectors
     8.492978554  8.492978554  8.492978554     0.117744322  0.117744322  0.117744322


 
 k-points in units of 2pi/SCALE and weight: Automatic mesh                          
   0.00000000  0.00000000  0.00000000       0.001
   0.00981203  0.00000000  0.00000000       0.001
   0.01962405  0.00000000  0.00000000       0.001
   0.02943608  0.00000000  0.00000000       0.001
   0.03924811  0.00000000  0.00000000       0.001
   0.04906013  0.00000000  0.00000000       0.001
   0.05887216  0.00000000  0.00000000       0.001
   0.00000000  0.00981203  0.00000000       0.002
   0.00981203  0.00981203  0.00000000       0.005
   0.01962405  0.00981203  0.00000000       0.005
   0.02943608  0.00981203  0.00000000       0.005
   0.03924811  0.00981203  0.00000000       0.005
   0.04906013  0.00981203  0.00000000       0.005
   0.05887216  0.00981203  0.00000000       0.002
   0.00000000  0.01962405  0.00000000       0.002
   0.00981203  0.01962405  0.00000000       0.005
   0.01962405  0.01962405  0.00000000       0.005
   0.02943608  0.01962405  0.00000000       0.005
   0.03924811  0.01962405  0.00000000       0.005
   0.04906013  0.01962405  0.00000000       0.005
   0.05887216  0.01962405  0.00000000       0.002
   0.00000000  0.02943608  0.00000000       0.002
   0.00981203  0.02943608  0.00000000       0.005
   0.01962405  0.02943608  0.00000000       0.005
   0.02943608  0.02943608  0.00000000       0.005
   0.03924811  0.02943608  0.00000000       0.005
   0.04906013  0.02943608  0.00000000       0.005
   0.05887216  0.02943608  0.00000000       0.002
   0.00000000  0.03924811  0.00000000       0.002
   0.00981203  0.03924811  0.00000000       0.005
   0.01962405  0.03924811  0.00000000       0.005
   0.02943608  0.03924811  0.00000000       0.005
   0.03924811  0.03924811  0.00000000       0.005
   0.04906013  0.03924811  0.00000000       0.005
   0.05887216  0.03924811  0.00000000       0.002
   0.00000000  0.04906013  0.00000000       0.002
   0.00981203  0.04906013  0.00000000       0.005
   0.01962405  0.04906013  0.00000000       0.005
   0.02943608  0.04906013  0.00000000       0.005
   0.03924811  0.04906013  0.00000000       0.005
   0.04906013  0.04906013  0.00000000       0.005
   0.05887216  0.04906013  0.00000000       0.002
   0.00000000  0.05887216  0.00000000       0.001
   0.00981203  0.05887216  0.00000000       0.002
   0.01962405  0.05887216  0.00000000       0.002
   0.02943608  0.05887216  0.00000000       0.002
   0.03924811  0.05887216  0.00000000       0.002
   0.04906013  0.05887216  0.00000000       0.002
   0.05887216  0.05887216  0.00000000       0.001
   0.00000000  0.00981203  0.00981203       0.002
   0.00981203  0.00981203  0.00981203       0.005
   0.01962405  0.00981203  0.00981203       0.005
   0.02943608  0.00981203  0.00981203       0.005
   0.03924811  0.00981203  0.00981203       0.005
   0.04906013  0.00981203  0.00981203       0.005
   0.05887216  0.00981203  0.00981203       0.002
   0.00000000  0.01962405  0.00981203       0.005
   0.00981203  0.01962405  0.00981203       0.009
   0.01962405  0.01962405  0.00981203       0.009
   0.02943608  0.01962405  0.00981203       0.009
   0.03924811  0.01962405  0.00981203       0.009
   0.04906013  0.01962405  0.00981203       0.009
   0.05887216  0.01962405  0.00981203       0.005
   0.00000000  0.02943608  0.00981203       0.005
   0.00981203  0.02943608  0.00981203       0.009
   0.01962405  0.02943608  0.00981203       0.009
   0.02943608  0.02943608  0.00981203       0.009
   0.03924811  0.02943608  0.00981203       0.009
   0.04906013  0.02943608  0.00981203       0.009
   0.05887216  0.02943608  0.00981203       0.005
   0.00000000  0.03924811  0.00981203       0.005
   0.00981203  0.03924811  0.00981203       0.009
   0.01962405  0.03924811  0.00981203       0.009
   0.02943608  0.03924811  0.00981203       0.009
   0.03924811  0.03924811  0.00981203       0.009
   0.04906013  0.03924811  0.00981203       0.009
   0.05887216  0.03924811  0.00981203       0.005
   0.00000000  0.04906013  0.00981203       0.005
   0.00981203  0.04906013  0.00981203       0.009
   0.01962405  0.04906013  0.00981203       0.009
   0.02943608  0.04906013  0.00981203       0.009
   0.03924811  0.04906013  0.00981203       0.009
   0.04906013  0.04906013  0.00981203       0.009
   0.05887216  0.04906013  0.00981203       0.005
   0.00000000  0.05887216  0.00981203       0.002
   0.00981203  0.05887216  0.00981203       0.005
   0.01962405  0.05887216  0.00981203       0.005
   0.02943608  0.05887216  0.00981203       0.005
   0.03924811  0.05887216  0.00981203       0.005
   0.04906013  0.05887216  0.00981203       0.005
   0.05887216  0.05887216  0.00981203       0.002
   0.00000000  0.01962405  0.01962405       0.002
   0.00981203  0.01962405  0.01962405       0.005
   0.01962405  0.01962405  0.01962405       0.005
   0.02943608  0.01962405  0.01962405       0.005
   0.03924811  0.01962405  0.01962405       0.005
   0.04906013  0.01962405  0.01962405       0.005
   0.05887216  0.01962405  0.01962405       0.002
   0.00000000  0.02943608  0.01962405       0.005
   0.00981203  0.02943608  0.01962405       0.009
   0.01962405  0.02943608  0.01962405       0.009
   0.02943608  0.02943608  0.01962405       0.009
   0.03924811  0.02943608  0.01962405       0.009
   0.04906013  0.02943608  0.01962405       0.009
   0.05887216  0.02943608  0.01962405       0.005
   0.00000000  0.03924811  0.01962405       0.005
   0.00981203  0.03924811  0.01962405       0.009
   0.01962405  0.03924811  0.01962405       0.009
   0.02943608  0.03924811  0.01962405       0.009
   0.03924811  0.03924811  0.01962405       0.009
   0.04906013  0.03924811  0.01962405       0.009
   0.05887216  0.03924811  0.01962405       0.005
   0.00000000  0.04906013  0.01962405       0.005
   0.00981203  0.04906013  0.01962405       0.009
   0.01962405  0.04906013  0.01962405       0.009
   0.02943608  0.04906013  0.01962405       0.009
   0.03924811  0.04906013  0.01962405       0.009
   0.04906013  0.04906013  0.01962405       0.009
   0.05887216  0.04906013  0.01962405       0.005
   0.00000000  0.05887216  0.01962405       0.002
   0.00981203  0.05887216  0.01962405       0.005
   0.01962405  0.05887216  0.01962405       0.005
   0.02943608  0.05887216  0.01962405       0.005
   0.03924811  0.05887216  0.01962405       0.005
   0.04906013  0.05887216  0.01962405       0.005
   0.05887216  0.05887216  0.01962405       0.002
   0.00000000  0.02943608  0.02943608       0.002
   0.00981203  0.02943608  0.02943608       0.005
   0.01962405  0.02943608  0.02943608       0.005
   0.02943608  0.02943608  0.02943608       0.005
   0.03924811  0.02943608  0.02943608       0.005
   0.04906013  0.02943608  0.02943608       0.005
   0.05887216  0.02943608  0.02943608       0.002
   0.00000000  0.03924811  0.02943608       0.005
   0.00981203  0.03924811  0.02943608       0.009
   0.01962405  0.03924811  0.02943608       0.009
   0.02943608  0.03924811  0.02943608       0.009
   0.03924811  0.03924811  0.02943608       0.009
   0.04906013  0.03924811  0.02943608       0.009
   0.05887216  0.03924811  0.02943608       0.005
   0.00000000  0.04906013  0.02943608       0.005
   0.00981203  0.04906013  0.02943608       0.009
   0.01962405  0.04906013  0.02943608       0.009
   0.02943608  0.04906013  0.02943608       0.009
   0.03924811  0.04906013  0.02943608       0.009
   0.04906013  0.04906013  0.02943608       0.009
   0.05887216  0.04906013  0.02943608       0.005
   0.00000000  0.05887216  0.02943608       0.002
   0.00981203  0.05887216  0.02943608       0.005
   0.01962405  0.05887216  0.02943608       0.005
   0.02943608  0.05887216  0.02943608       0.005
   0.03924811  0.05887216  0.02943608       0.005
   0.04906013  0.05887216  0.02943608       0.005
   0.05887216  0.05887216  0.02943608       0.002
   0.00000000  0.03924811  0.03924811       0.002
   0.00981203  0.03924811  0.03924811       0.005
   0.01962405  0.03924811  0.03924811       0.005
   0.02943608  0.03924811  0.03924811       0.005
   0.03924811  0.03924811  0.03924811       0.005
   0.04906013  0.03924811  0.03924811       0.005
   0.05887216  0.03924811  0.03924811       0.002
   0.00000000  0.04906013  0.03924811       0.005
   0.00981203  0.04906013  0.03924811       0.009
   0.01962405  0.04906013  0.03924811       0.009
   0.02943608  0.04906013  0.03924811       0.009
   0.03924811  0.04906013  0.03924811       0.009
   0.04906013  0.04906013  0.03924811       0.009
   0.05887216  0.04906013  0.03924811       0.005
   0.00000000  0.05887216  0.03924811       0.002
   0.00981203  0.05887216  0.03924811       0.005
   0.01962405  0.05887216  0.03924811       0.005
   0.02943608  0.05887216  0.03924811       0.005
   0.03924811  0.05887216  0.03924811       0.005
   0.04906013  0.05887216  0.03924811       0.005
   0.05887216  0.05887216  0.03924811       0.002
   0.00000000  0.04906013  0.04906013       0.002
   0.00981203  0.04906013  0.04906013       0.005
   0.01962405  0.04906013  0.04906013       0.005
   0.02943608  0.04906013  0.04906013       0.005
   0.03924811  0.04906013  0.04906013       0.005
   0.04906013  0.04906013  0.04906013       0.005
   0.05887216  0.04906013  0.04906013       0.002
   0.00000000  0.05887216  0.04906013       0.002
   0.00981203  0.05887216  0.04906013       0.005
   0.01962405  0.05887216  0.04906013       0.005
   0.02943608  0.05887216  0.04906013       0.005
   0.03924811  0.05887216  0.04906013       0.005
   0.04906013  0.05887216  0.04906013       0.005
   0.05887216  0.05887216  0.04906013       0.002
   0.00000000  0.05887216  0.05887216       0.001
   0.00981203  0.05887216  0.05887216       0.001
   0.01962405  0.05887216  0.05887216       0.001
   0.02943608  0.05887216  0.05887216       0.001
   0.03924811  0.05887216  0.05887216       0.001
   0.04906013  0.05887216  0.05887216       0.001
   0.05887216  0.05887216  0.05887216       0.001
 
 k-points in reciprocal lattice and weights: Automatic mesh                          
   0.00000000  0.00000000  0.00000000       0.001
   0.08333333  0.00000000  0.00000000       0.001
   0.16666667  0.00000000  0.00000000       0.001
   0.25000000  0.00000000  0.00000000       0.001
   0.33333333  0.00000000  0.00000000       0.001
   0.41666667  0.00000000  0.00000000       0.001
   0.50000000  0.00000000  0.00000000       0.001
   0.00000000  0.08333333  0.00000000       0.002
   0.08333333  0.08333333  0.00000000       0.005
   0.16666667  0.08333333  0.00000000       0.005
   0.25000000  0.08333333  0.00000000       0.005
   0.33333333  0.08333333  0.00000000       0.005
   0.41666667  0.08333333  0.00000000       0.005
   0.50000000  0.08333333  0.00000000       0.002
   0.00000000  0.16666667  0.00000000       0.002
   0.08333333  0.16666667  0.00000000       0.005
   0.16666667  0.16666667  0.00000000       0.005
   0.25000000  0.16666667  0.00000000       0.005
   0.33333333  0.16666667  0.00000000       0.005
   0.41666667  0.16666667  0.00000000       0.005
   0.50000000  0.16666667  0.00000000       0.002
   0.00000000  0.25000000  0.00000000       0.002
   0.08333333  0.25000000  0.00000000       0.005
   0.16666667  0.25000000  0.00000000       0.005
   0.25000000  0.25000000  0.00000000       0.005
   0.33333333  0.25000000  0.00000000       0.005
   0.41666667  0.25000000  0.00000000       0.005
   0.50000000  0.25000000  0.00000000       0.002
   0.00000000  0.33333333  0.00000000       0.002
   0.08333333  0.33333333  0.00000000       0.005
   0.16666667  0.33333333  0.00000000       0.005
   0.25000000  0.33333333  0.00000000       0.005
   0.33333333  0.33333333  0.00000000       0.005
   0.41666667  0.33333333  0.00000000       0.005
   0.50000000  0.33333333  0.00000000       0.002
   0.00000000  0.41666667  0.00000000       0.002
   0.08333333  0.41666667  0.00000000       0.005
   0.16666667  0.41666667  0.00000000       0.005
   0.25000000  0.41666667  0.00000000       0.005
   0.33333333  0.41666667  0.00000000       0.005
   0.41666667  0.41666667  0.00000000       0.005
   0.50000000  0.41666667  0.00000000       0.002
   0.00000000  0.50000000  0.00000000       0.001
   0.08333333  0.50000000  0.00000000       0.002
   0.16666667  0.50000000  0.00000000       0.002
   0.25000000  0.50000000  0.00000000       0.002
   0.33333333  0.50000000  0.00000000       0.002
   0.41666667  0.50000000  0.00000000       0.002
   0.50000000  0.50000000  0.00000000       0.001
   0.00000000  0.08333333  0.08333333       0.002
   0.08333333  0.08333333  0.08333333       0.005
   0.16666667  0.08333333  0.08333333       0.005
   0.25000000  0.08333333  0.08333333       0.005
   0.33333333  0.08333333  0.08333333       0.005
   0.41666667  0.08333333  0.08333333       0.005
   0.50000000  0.08333333  0.08333333       0.002
   0.00000000  0.16666667  0.08333333       0.005
   0.08333333  0.16666667  0.08333333       0.009
   0.16666667  0.16666667  0.08333333       0.009
   0.25000000  0.16666667  0.08333333       0.009
   0.33333333  0.16666667  0.08333333       0.009
   0.41666667  0.16666667  0.08333333       0.009
   0.50000000  0.16666667  0.08333333       0.005
   0.00000000  0.25000000  0.08333333       0.005
   0.08333333  0.25000000  0.08333333       0.009
   0.16666667  0.25000000  0.08333333       0.009
   0.25000000  0.25000000  0.08333333       0.009
   0.33333333  0.25000000  0.08333333       0.009
   0.41666667  0.25000000  0.08333333       0.009
   0.50000000  0.25000000  0.08333333       0.005
   0.00000000  0.33333333  0.08333333       0.005
   0.08333333  0.33333333  0.08333333       0.009
   0.16666667  0.33333333  0.08333333       0.009
   0.25000000  0.33333333  0.08333333       0.009
   0.33333333  0.33333333  0.08333333       0.009
   0.41666667  0.33333333  0.08333333       0.009
   0.50000000  0.33333333  0.08333333       0.005
   0.00000000  0.41666667  0.08333333       0.005
   0.08333333  0.41666667  0.08333333       0.009
   0.16666667  0.41666667  0.08333333       0.009
   0.25000000  0.41666667  0.08333333       0.009
   0.33333333  0.41666667  0.08333333       0.009
   0.41666667  0.41666667  0.08333333       0.009
   0.50000000  0.41666667  0.08333333       0.005
   0.00000000  0.50000000  0.08333333       0.002
   0.08333333  0.50000000  0.08333333       0.005
   0.16666667  0.50000000  0.08333333       0.005
   0.25000000  0.50000000  0.08333333       0.005
   0.33333333  0.50000000  0.08333333       0.005
   0.41666667  0.50000000  0.08333333       0.005
   0.50000000  0.50000000  0.08333333       0.002
   0.00000000  0.16666667  0.16666667       0.002
   0.08333333  0.16666667  0.16666667       0.005
   0.16666667  0.16666667  0.16666667       0.005
   0.25000000  0.16666667  0.16666667       0.005
   0.33333333  0.16666667  0.16666667       0.005
   0.41666667  0.16666667  0.16666667       0.005
   0.50000000  0.16666667  0.16666667       0.002
   0.00000000  0.25000000  0.16666667       0.005
   0.08333333  0.25000000  0.16666667       0.009
   0.16666667  0.25000000  0.16666667       0.009
   0.25000000  0.25000000  0.16666667       0.009
   0.33333333  0.25000000  0.16666667       0.009
   0.41666667  0.25000000  0.16666667       0.009
   0.50000000  0.25000000  0.16666667       0.005
   0.00000000  0.33333333  0.16666667       0.005
   0.08333333  0.33333333  0.16666667       0.009
   0.16666667  0.33333333  0.16666667       0.009
   0.25000000  0.33333333  0.16666667       0.009
   0.33333333  0.33333333  0.16666667       0.009
   0.41666667  0.33333333  0.16666667       0.009
   0.50000000  0.33333333  0.16666667       0.005
   0.00000000  0.41666667  0.16666667       0.005
   0.08333333  0.41666667  0.16666667       0.009
   0.16666667  0.41666667  0.16666667       0.009
   0.25000000  0.41666667  0.16666667       0.009
   0.33333333  0.41666667  0.16666667       0.009
   0.41666667  0.41666667  0.16666667       0.009
   0.50000000  0.41666667  0.16666667       0.005
   0.00000000  0.50000000  0.16666667       0.002
   0.08333333  0.50000000  0.16666667       0.005
   0.16666667  0.50000000  0.16666667       0.005
   0.25000000  0.50000000  0.16666667       0.005
   0.33333333  0.50000000  0.16666667       0.005
   0.41666667  0.50000000  0.16666667       0.005
   0.50000000  0.50000000  0.16666667       0.002
   0.00000000  0.25000000  0.25000000       0.002
   0.08333333  0.25000000  0.25000000       0.005
   0.16666667  0.25000000  0.25000000       0.005
   0.25000000  0.25000000  0.25000000       0.005
   0.33333333  0.25000000  0.25000000       0.005
   0.41666667  0.25000000  0.25000000       0.005
   0.50000000  0.25000000  0.25000000       0.002
   0.00000000  0.33333333  0.25000000       0.005
   0.08333333  0.33333333  0.25000000       0.009
   0.16666667  0.33333333  0.25000000       0.009
   0.25000000  0.33333333  0.25000000       0.009
   0.33333333  0.33333333  0.25000000       0.009
   0.41666667  0.33333333  0.25000000       0.009
   0.50000000  0.33333333  0.25000000       0.005
   0.00000000  0.41666667  0.25000000       0.005
   0.08333333  0.41666667  0.25000000       0.009
   0.16666667  0.41666667  0.25000000       0.009
   0.25000000  0.41666667  0.25000000       0.009
   0.33333333  0.41666667  0.25000000       0.009
   0.41666667  0.41666667  0.25000000       0.009
   0.50000000  0.41666667  0.25000000       0.005
   0.00000000  0.50000000  0.25000000       0.002
   0.08333333  0.50000000  0.25000000       0.005
   0.16666667  0.50000000  0.25000000       0.005
   0.25000000  0.50000000  0.25000000       0.005
   0.33333333  0.50000000  0.25000000       0.005
   0.41666667  0.50000000  0.25000000       0.005
   0.50000000  0.50000000  0.25000000       0.002
   0.00000000  0.33333333  0.33333333       0.002
   0.08333333  0.33333333  0.33333333       0.005
   0.16666667  0.33333333  0.33333333       0.005
   0.25000000  0.33333333  0.33333333       0.005
   0.33333333  0.33333333  0.33333333       0.005
   0.41666667  0.33333333  0.33333333       0.005
   0.50000000  0.33333333  0.33333333       0.002
   0.00000000  0.41666667  0.33333333       0.005
   0.08333333  0.41666667  0.33333333       0.009
   0.16666667  0.41666667  0.33333333       0.009
   0.25000000  0.41666667  0.33333333       0.009
   0.33333333  0.41666667  0.33333333       0.009
   0.41666667  0.41666667  0.33333333       0.009
   0.50000000  0.41666667  0.33333333       0.005
   0.00000000  0.50000000  0.33333333       0.002
   0.08333333  0.50000000  0.33333333       0.005
   0.16666667  0.50000000  0.33333333       0.005
   0.25000000  0.50000000  0.33333333       0.005
   0.33333333  0.50000000  0.33333333       0.005
   0.41666667  0.50000000  0.33333333       0.005
   0.50000000  0.50000000  0.33333333       0.002
   0.00000000  0.41666667  0.41666667       0.002
   0.08333333  0.41666667  0.41666667       0.005
   0.16666667  0.41666667  0.41666667       0.005
   0.25000000  0.41666667  0.41666667       0.005
   0.33333333  0.41666667  0.41666667       0.005
   0.41666667  0.41666667  0.41666667       0.005
   0.50000000  0.41666667  0.41666667       0.002
   0.00000000  0.50000000  0.41666667       0.002
   0.08333333  0.50000000  0.41666667       0.005
   0.16666667  0.50000000  0.41666667       0.005
   0.25000000  0.50000000  0.41666667       0.005
   0.33333333  0.50000000  0.41666667       0.005
   0.41666667  0.50000000  0.41666667       0.005
   0.50000000  0.50000000  0.41666667       0.002
   0.00000000  0.50000000  0.50000000       0.001
   0.08333333  0.50000000  0.50000000       0.001
   0.16666667  0.50000000  0.50000000       0.001
   0.25000000  0.50000000  0.50000000       0.001
   0.33333333  0.50000000  0.50000000       0.001
   0.41666667  0.50000000  0.50000000       0.001
   0.50000000  0.50000000  0.50000000       0.001
 
 position of ions in fractional coordinates (direct lattice) 
   0.00117744  0.00000000  0.00000000
   0.50000000  0.00000000  0.00000000
   0.00000000  0.50000000  0.00000000
   0.50000000  0.50000000  0.00000000
   0.00000000  0.00000000  0.50000000
   0.50000000  0.00000000  0.50000000
   0.00000000  0.50000000  0.50000000
   0.50000000  0.50000000  0.50000000
   0.25000000  0.25000000  0.00000000
   0.75000000  0.25000000  0.00000000
   0.25000000  0.75000000  0.00000000
   0.75000000  0.75000000  0.00000000
   0.25000000  0.25000000  0.50000000
   0.75000000  0.25000000  0.50000000
   0.25000000  0.75000000  0.50000000
   0.75000000  0.75000000  0.50000000
   0.25000000  0.00000000  0.25000000
   0.75000000  0.00000000  0.25000000
   0.25000000  0.50000000  0.25000000
   0.75000000  0.50000000  0.25000000
   0.25000000  0.00000000  0.75000000
   0.75000000  0.00000000  0.75000000
   0.25000000  0.50000000  0.75000000
   0.75000000  0.50000000  0.75000000
   0.00000000  0.25000000  0.25000000
   0.50000000  0.25000000  0.25000000
   0.00000000  0.75000000  0.25000000
   0.50000000  0.75000000  0.25000000
   0.00000000  0.25000000  0.75000000
   0.50000000  0.25000000  0.75000000
   0.00000000  0.75000000  0.75000000
   0.50000000  0.75000000  0.75000000
 
 position of ions in cartesian coordinates  (Angst):
   0.01000000  0.00000000  0.00000000
   4.24648928  0.00000000  0.00000000
   0.00000000  4.24648928  0.00000000
   4.24648928  4.24648928  0.00000000
   0.00000000  0.00000000  4.24648928
   4.24648928  0.00000000  4.24648928
   0.00000000  4.24648928  4.24648928
   4.24648928  4.24648928  4.24648928
   2.12324464  2.12324464  0.00000000
   6.36973392  2.12324464  0.00000000
   2.12324464  6.36973392  0.00000000
   6.36973392  6.36973392  0.00000000
   2.12324464  2.12324464  4.24648928
   6.36973392  2.12324464  4.24648928
   2.12324464  6.36973392  4.24648928
   6.36973392  6.36973392  4.24648928
   2.12324464  0.00000000  2.12324464
   6.36973392  0.00000000  2.12324464
   2.12324464  4.24648928  2.12324464
   6.36973392  4.24648928  2.12324464
   2.12324464  0.00000000  6.36973392
   6.36973392  0.00000000  6.36973392
   2.12324464  4.24648928  6.36973392
   6.36973392  4.24648928  6.36973392
   0.00000000  2.12324464  2.12324464
   4.24648928  2.12324464  2.12324464
   0.00000000  6.36973392  2.12324464
   4.24648928  6.36973392  2.12324464
   0.00000000  2.12324464  6.36973392
   4.24648928  2.12324464  6.36973392
   0.00000000  6.36973392  6.36973392
   4.24648928  6.36973392  6.36973392
 


--------------------------------------------------------------------------------------------------------


 k-point  1 :  0.00000.00000.0000  plane waves:  28425
 k-point  2 :  0.08330.00000.0000  plane waves:  28502
 k-point  3 :  0.16670.00000.0000  plane waves:  28522
 k-point  4 :  0.25000.00000.0000  plane waves:  28558
 k-point  5 :  0.33330.00000.0000  plane waves:  28534
 k-point  6 :  0.41670.00000.0000  plane waves:  28558
 k-point  7 :  0.50000.00000.0000  plane waves:  28566
 k-point  8 :  0.00000.08330.0000  plane waves:  28502
 k-point  9 :  0.08330.08330.0000  plane waves:  28529
 k-point 10 :  0.16670.08330.0000  plane waves:  28547
 k-point 11 :  0.25000.08330.0000  plane waves:  28537
 k-point 12 :  0.33330.08330.0000  plane waves:  28559
 k-point 13 :  0.41670.08330.0000  plane waves:  28561
 k-point 14 :  0.50000.08330.0000  plane waves:  28582
 k-point 15 :  0.00000.16670.0000  plane waves:  28522
 k-point 16 :  0.08330.16670.0000  plane waves:  28547
 k-point 17 :  0.16670.16670.0000  plane waves:  28525
 k-point 18 :  0.25000.16670.0000  plane waves:  28534
 k-point 19 :  0.33330.16670.0000  plane waves:  28545
 k-point 20 :  0.41670.16670.0000  plane waves:  28560
 k-point 21 :  0.50000.16670.0000  plane waves:  28606
 k-point 22 :  0.00000.25000.0000  plane waves:  28558
 k-point 23 :  0.08330.25000.0000  plane waves:  28537
 k-point 24 :  0.16670.25000.0000  plane waves:  28534
 k-point 25 :  0.25000.25000.0000  plane waves:  28577
 k-point 26 :  0.33330.25000.0000  plane waves:  28552
 k-point 27 :  0.41670.25000.0000  plane waves:  28577
 k-point 28 :  0.50000.25000.0000  plane waves:  28576
 k-point 29 :  0.00000.33330.0000  plane waves:  28534
 k-point 30 :  0.08330.33330.0000  plane waves:  28559
 k-point 31 :  0.16670.33330.0000  plane waves:  28545
 k-point 32 :  0.25000.33330.0000  plane waves:  28552
 k-point 33 :  0.33330.33330.0000  plane waves:  28609
 k-point 34 :  0.41670.33330.0000  plane waves:  28591
 k-point 35 :  0.50000.33330.0000  plane waves:  28546
 k-point 36 :  0.00000.41670.0000  plane waves:  28558
 k-point 37 :  0.08330.41670.0000  plane waves:  28561
 k-point 38 :  0.16670.41670.0000  plane waves:  28560
 k-point 39 :  0.25000.41670.0000  plane waves:  28577
 k-point 40 :  0.33330.41670.0000  plane waves:  28591
 k-point 41 :  0.41670.41670.0000  plane waves:  28576
 k-point 42 :  0.50000.41670.0000  plane waves:  28572
 k-point 43 :  0.00000.50000.0000  plane waves:  28566
 k-point 44 :  0.08330.50000.0000  plane waves:  28582
 k-point 45 :  0.16670.50000.0000  plane waves:  28606
 k-point 46 :  0.25000.50000.0000  plane waves:  28576
 k-point 47 :  0.33330.50000.0000  plane waves:  28546
 k-point 48 :  0.41670.50000.0000  plane waves:  28572
 k-point 49 :  0.50000.50000.0000  plane waves:  28596
 k-point 50 :  0.00000.08330.0833  plane waves:  28529
 k-point 51 :  0.08330.08330.0833  plane waves:  28525
 k-point 52 :  0.16670.08330.0833  plane waves:  28553
 k-point 53 :  0.25000.08330.0833  plane waves:  28535
 k-point 54 :  0.33330.08330.0833  plane waves:  28535
 k-point 55 :  0.41670.08330.0833  plane waves:  28566
 k-point 56 :  0.50000.08330.0833  plane waves:  28596
 k-point 57 :  0.00000.16670.0833  plane waves:  28547
 k-point 58 :  0.08330.16670.0833  plane waves:  28553
 k-point 59 :  0.16670.16670.0833  plane waves:  28533
 k-point 60 :  0.25000.16670.0833  plane waves:  28538
 k-point 61 :  0.33330.16670.0833  plane waves:  28570
 k-point 62 :  0.41670.16670.0833  plane waves:  28586
 k-point 63 :  0.50000.16670.0833  plane waves:  28590
 k-point 64 :  0.00000.25000.0833  plane waves:  28537
 k-point 65 :  0.08330.25000.0833  plane waves:  28535
 k-point 66 :  0.16670.25000.0833  plane waves:  28538
 k-point 67 :  0.25000.25000.0833  plane waves:  28566
 k-point 68 :  0.33330.25000.0833  plane waves:  28553
 k-point 69 :  0.41670.25000.0833  plane waves:  28572
 k-point 70 :  0.50000.25000.0833  plane waves:  28580
 k-point 71 :  0.00000.33330.0833  plane waves:  28559
 k-point 72 :  0.08330.33330.0833  plane waves:  28535
 k-point 73 :  0.16670.33330.0833  plane waves:  28570
 k-point 74 :  0.25000.33330.0833  plane waves:  28553
 k-point 75 :  0.33330.33330.0833  plane waves:  28565
 k-point 76 :  0.41670.33330.0833  plane waves:  28580
 k-point 77 :  0.50000.33330.0833  plane waves:  28580
 k-point 78 :  0.00000.41670.0833  plane waves:  28561
 k-point 79 :  0.08330.41670.0833  plane waves:  28566
 k-point 80 :  0.16670.41670.0833  plane waves:  28586
 k-point 81 :  0.25000.41670.0833  plane waves:  28572
 k-point 82 :  0.33330.41670.0833  plane waves:  28580
 k-point 83 :  0.41670.41670.0833  plane waves:  28572
 k-point 84 :  0.50000.41670.0833  plane waves:  28556
 k-point 85 :  0.00000.50000.0833  plane waves:  28582
 k-point 86 :  0.08330.50000.0833  plane waves:  28596
 k-point 87 :  0.16670.50000.0833  plane waves:  28590
 k-point 88 :  0.25000.50000.0833  plane waves:  28580
 k-point 89 :  0.33330.50000.0833  plane waves:  28580
 k-point 90 :  0.41670.50000.0833  plane waves:  28556
 k-point 91 :  0.50000.50000.0833  plane waves:  28536
 k-point 92 :  0.00000.16670.1667  plane waves:  28525
 k-point 93 :  0.08330.16670.1667  plane waves:  28533
 k-point 94 :  0.16670.16670.1667  plane waves:  28585
 k-point 95 :  0.25000.16670.1667  plane waves:  28588
 k-point 96 :  0.33330.16670.1667  plane waves:  28560
 k-point 97 :  0.41670.16670.1667  plane waves:  28579
 k-point 98 :  0.50000.16670.1667  plane waves:  28616
 k-point 99 :  0.00000.25000.1667  plane waves:  28534
 k-point ** :  0.08330.25000.1667  plane waves:  28538
 k-point ** :  0.16670.25000.1667  plane waves:  28588
 k-point ** :  0.25000.25000.1667  plane waves:  28582
 k-point ** :  0.33330.25000.1667  plane waves:  28578
 k-point ** :  0.41670.25000.1667  plane waves:  28579
 k-point ** :  0.50000.25000.1667  plane waves:  28596
 k-point ** :  0.00000.33330.1667  plane waves:  28545
 k-point ** :  0.08330.33330.1667  plane waves:  28570
 k-point ** :  0.16670.33330.1667  plane waves:  28560
 k-point ** :  0.25000.33330.1667  plane waves:  28578
 k-point ** :  0.33330.33330.1667  plane waves:  28601
 k-point ** :  0.41670.33330.1667  plane waves:  28597
 k-point ** :  0.50000.33330.1667  plane waves:  28574
 k-point ** :  0.00000.41670.1667  plane waves:  28560
 k-point ** :  0.08330.41670.1667  plane waves:  28586
 k-point ** :  0.16670.41670.1667  plane waves:  28579
 k-point ** :  0.25000.41670.1667  plane waves:  28579
 k-point ** :  0.33330.41670.1667  plane waves:  28597
 k-point ** :  0.41670.41670.1667  plane waves:  28565
 k-point ** :  0.50000.41670.1667  plane waves:  28570
 k-point ** :  0.00000.50000.1667  plane waves:  28606
 k-point ** :  0.08330.50000.1667  plane waves:  28590
 k-point ** :  0.16670.50000.1667  plane waves:  28616
 k-point ** :  0.25000.50000.1667  plane waves:  28596
 k-point ** :  0.33330.50000.1667  plane waves:  28574
 k-point ** :  0.41670.50000.1667  plane waves:  28570
 k-point ** :  0.50000.50000.1667  plane waves:  28540
 k-point ** :  0.00000.25000.2500  plane waves:  28577
 k-point ** :  0.08330.25000.2500  plane waves:  28566
 k-point ** :  0.16670.25000.2500  plane waves:  28582
 k-point ** :  0.25000.25000.2500  plane waves:  28564
 k-point ** :  0.33330.25000.2500  plane waves:  28599
 k-point ** :  0.41670.25000.2500  plane waves:  28593
 k-point ** :  0.50000.25000.2500  plane waves:  28630
 k-point ** :  0.00000.33330.2500  plane waves:  28552
 k-point ** :  0.08330.33330.2500  plane waves:  28553
 k-point ** :  0.16670.33330.2500  plane waves:  28578
 k-point ** :  0.25000.33330.2500  plane waves:  28599
 k-point ** :  0.33330.33330.2500  plane waves:  28598
 k-point ** :  0.41670.33330.2500  plane waves:  28590
 k-point ** :  0.50000.33330.2500  plane waves:  28584
 k-point ** :  0.00000.41670.2500  plane waves:  28577
 k-point ** :  0.08330.41670.2500  plane waves:  28572
 k-point ** :  0.16670.41670.2500  plane waves:  28579
 k-point ** :  0.25000.41670.2500  plane waves:  28593
 k-point ** :  0.33330.41670.2500  plane waves:  28590
 k-point ** :  0.41670.41670.2500  plane waves:  28578
 k-point ** :  0.50000.41670.2500  plane waves:  28588
 k-point ** :  0.00000.50000.2500  plane waves:  28576
 k-point ** :  0.08330.50000.2500  plane waves:  28580
 k-point ** :  0.16670.50000.2500  plane waves:  28596
 k-point ** :  0.25000.50000.2500  plane waves:  28630
 k-point ** :  0.33330.50000.2500  plane waves:  28584
 k-point ** :  0.41670.50000.2500  plane waves:  28588
 k-point ** :  0.50000.50000.2500  plane waves:  28596
 k-point ** :  0.00000.33330.3333  plane waves:  28609
 k-point ** :  0.08330.33330.3333  plane waves:  28565
 k-point ** :  0.16670.33330.3333  plane waves:  28601
 k-point ** :  0.25000.33330.3333  plane waves:  28598
 k-point ** :  0.33330.33330.3333  plane waves:  28570
 k-point ** :  0.41670.33330.3333  plane waves:  28585
 k-point ** :  0.50000.33330.3333  plane waves:  28576
 k-point ** :  0.00000.41670.3333  plane waves:  28591
 k-point ** :  0.08330.41670.3333  plane waves:  28580
 k-point ** :  0.16670.41670.3333  plane waves:  28597
 k-point ** :  0.25000.41670.3333  plane waves:  28590
 k-point ** :  0.33330.41670.3333  plane waves:  28585
 k-point ** :  0.41670.41670.3333  plane waves:  28582
 k-point ** :  0.50000.41670.3333  plane waves:  28582
 k-point ** :  0.00000.50000.3333  plane waves:  28546
 k-point ** :  0.08330.50000.3333  plane waves:  28580
 k-point ** :  0.16670.50000.3333  plane waves:  28574
 k-point ** :  0.25000.50000.3333  plane waves:  28584
 k-point ** :  0.33330.50000.3333  plane waves:  28576
 k-point ** :  0.41670.50000.3333  plane waves:  28582
 k-point ** :  0.50000.50000.3333  plane waves:  28612
 k-point ** :  0.00000.41670.4167  plane waves:  28576
 k-point ** :  0.08330.41670.4167  plane waves:  28572
 k-point ** :  0.16670.41670.4167  plane waves:  28565
 k-point ** :  0.25000.41670.4167  plane waves:  28578
 k-point ** :  0.33330.41670.4167  plane waves:  28582
 k-point ** :  0.41670.41670.4167  plane waves:  28609
 k-point ** :  0.50000.41670.4167  plane waves:  28578
 k-point ** :  0.00000.50000.4167  plane waves:  28572
 k-point ** :  0.08330.50000.4167  plane waves:  28556
 k-point ** :  0.16670.50000.4167  plane waves:  28570
 k-point ** :  0.25000.50000.4167  plane waves:  28588
 k-point ** :  0.33330.50000.4167  plane waves:  28582
 k-point ** :  0.41670.50000.4167  plane waves:  28578
 k-point ** :  0.50000.50000.4167  plane waves:  28576
 k-point ** :  0.00000.50000.5000  plane waves:  28596
 k-point ** :  0.08330.50000.5000  plane waves:  28536
 k-point ** :  0.16670.50000.5000  plane waves:  28540
 k-point ** :  0.25000.50000.5000  plane waves:  28596
 k-point ** :  0.33330.50000.5000  plane waves:  28612
 k-point ** :  0.41670.50000.5000  plane waves:  28576
 k-point ** :  0.50000.50000.5000  plane waves:  28576

 maximum and minimum number of plane-waves per node :  28630 28425

 maximum number of plane-waves:  28630
 maximal index in each direction: 
   IXMAX= 18   IYMAX= 18   IZMAX= 18
   IXMIN=-19   IYMIN=-19   IZMIN=-19

 NGX is ok and might be reduce to  76
 NGY is ok and might be reduce to  76
 NGZ is ok and might be reduce to  76

 parallel 3dFFT wavefunction:
    minimum data exchange during FFTs selected (reduces bandwidth)
 parallel 3dFFT charge:
    minimum data exchange during FFTs selected (reduces bandwidth)

 For storing wavefunctions ******* MBYTES are necessary
 For predicting wavefunctions  207.90 MBYTES are necessary
Broyden mixing: mesh for mixing (old mesh)
   NGX = 37   NGY = 37   NGZ = 37
  (NGX  =160   NGY  =160   NGZ  =160)
 gives a total of  50653 points
 initial charge density was supplied:
 charge density of overlapping atoms calculated
 number of electron  352.0000000 magnetization 
 keeping initial charge density in first step


--------------------------------------------------------------------------------------------------------


 Maximum index for augmentation-charges        39967 (set IRDMAX)


--------------------------------------------------------------------------------------------------------


 First call to EWALD:  gamma=   0.209
 Maximum number of real-space cells 3x 3x 3
 Maximum number of reciprocal cells 3x 3x 3

    FEWALD:  VPU time    0.01: CPU time    0.01


----------------------------------------- Iteration    1(   1)  ---------------------------------------


    POTLOK:  VPU time    1.60: CPU time    1.62
    SETDIJ:  VPU time    3.33: CPU time    3.37
    EDDAV :  VPU time12155.71: CPU time12164.57
    DOS   :  VPU time    0.00: CPU time   -0.00
    ------------------------------------------
      LOOP:  VPU time12160.88: CPU time12169.80

 eigenvalue-minimisations  : 84720
 total energy-change (2. order) : 0.4176624E+04  (-0.2113093E+05)
 number of electron  352.0000000 magnetization 
 augmentation part   352.0000000 magnetization 

 Free energy of the ion-electron system (eV)
  ---------------------------------------------------
  alpha Z        PSCENC =      2968.30361172
  Ewald energy   TEWEN  =    -30099.37338892
  -1/2 Hartree   DENC   =     -7059.60649235
  -V(xc)+E(xc)   XCENC  =      -351.91193095
  PAW double counting   =     27861.41421209   -26376.63839568
  entropy T*S    EENTRO =        -0.00069430
  eigenvalues    EBANDS =      4037.23982430
  atomic energy  EATOM  =     33197.19690173
  ---------------------------------------------------
  free energy    TOTEN  =      4176.62364765 eV

  energy without entropy =     4176.62434195  energy(sigma->0) =     4176.62399480


--------------------------------------------------------------------------------------------------------




----------------------------------------- Iteration    1(   2)  ---------------------------------------


    EDDAV :  VPU time12142.46: CPU time12152.76
    DOS   :  VPU time    0.00: CPU time   -0.00
    ------------------------------------------
      LOOP:  VPU time12142.70: CPU time12153.02

 eigenvalue-minimisations  : 84672
 total energy-change (2. order) :-0.4062379E+04  (-0.3872525E+04)
 number of electron  352.0000000 magnetization 
 augmentation part   352.0000000 magnetization 

 Free energy of the ion-electron system (eV)
  ---------------------------------------------------
  alpha Z        PSCENC =      2968.30361172
  Ewald energy   TEWEN  =    -30099.37338892
  -1/2 Hartree   DENC   =     -7059.60649235
  -V(xc)+E(xc)   XCENC  =      -351.91193095
  PAW double counting   =     27861.41421209   -26376.63839568
  entropy T*S    EENTRO =        -0.00042176
  eigenvalues    EBANDS =       -25.13900653
  atomic energy  EATOM  =     33197.19690173
  ---------------------------------------------------
  free energy    TOTEN  =       114.24508936 eV

  energy without entropy =      114.24551112  energy(sigma->0) =      114.24530024


--------------------------------------------------------------------------------------------------------




----------------------------------------- Iteration    1(   3)  ---------------------------------------


    EDDAV :  VPU time12513.57: CPU time12669.42
    DOS   :  VPU time    0.00: CPU time   -0.00
    ------------------------------------------
      LOOP:  VPU time12513.81: CPU time12669.68

 eigenvalue-minimisations  : 89264
 total energy-change (2. order) :-0.2067060E+03  (-0.1977666E+03)
 number of electron  352.0000000 magnetization 
 augmentation part   352.0000000 magnetization 

 Free energy of the ion-electron system (eV)
  ---------------------------------------------------
  alpha Z        PSCENC =      2968.30361172
  Ewald energy   TEWEN  =    -30099.37338892
  -1/2 Hartree   DENC   =     -7059.60649235
  -V(xc)+E(xc)   XCENC  =      -351.91193095
  PAW double counting   =     27861.41421209   -26376.63839568
  entropy T*S    EENTRO =        -0.00062443
  eigenvalues    EBANDS =      -231.84477676
  atomic energy  EATOM  =     33197.19690173
  ---------------------------------------------------
  free energy    TOTEN  =       -92.46088353 eV

  energy without entropy =      -92.46025910  energy(sigma->0) =      -92.46057132


--------------------------------------------------------------------------------------------------------




----------------------------------------- Iteration    1(   4)  ---------------------------------------


    EDDAV :  VPU time12837.54: CPU time12859.44
    DOS   :  VPU time    0.00: CPU time   -0.00
    ------------------------------------------
      LOOP:  VPU time12837.78: CPU time12859.70

 eigenvalue-minimisations  : 91096
 total energy-change (2. order) :-0.3971728E+01  (-0.3945899E+01)
 number of electron  352.0000000 magnetization 
 augmentation part   352.0000000 magnetization 

 Free energy of the ion-electron system (eV)
  ---------------------------------------------------
  alpha Z        PSCENC =      2968.30361172
  Ewald energy   TEWEN  =    -30099.37338892
  -1/2 Hartree   DENC   =     -7059.60649235
  -V(xc)+E(xc)   XCENC  =      -351.91193095
  PAW double counting   =     27861.41421209   -26376.63839568
  entropy T*S    EENTRO =        -0.00090646
  eigenvalues    EBANDS =      -235.81622242
  atomic energy  EATOM  =     33197.19690173
  ---------------------------------------------------
  free energy    TOTEN  =       -96.43261122 eV

  energy without entropy =      -96.43170477  energy(sigma->0) =      -96.43215800


--------------------------------------------------------------------------------------------------------




----------------------------------------- Iteration    1(   5)  ---------------------------------------


    EDDAV :  VPU time12727.37: CPU time12735.77
    DOS   :  VPU time    0.00: CPU time   -0.00
    CHARGE:  VPU time  334.02: CPU time  334.24
    MIXING:  VPU time    0.04: CPU time    0.04
    ------------------------------------------
      LOOP:  VPU time13061.67: CPU time13070.30

 eigenvalue-minimisations  : 89952
 total energy-change (2. order) :-0.2243999E-01  (-0.2241605E-01)
 number of electron  352.0000010 magnetization 
 augmentation part   163.7038600 magnetization 

 Broyden mixing:
  rms(total) = 0.14912E+01    rms(broyden)= 0.14912E+01
  rms(prec ) = 0.22488E+01
  weight for this iteration     100.00

 Free energy of the ion-electron system (eV)
  ---------------------------------------------------
  alpha Z        PSCENC =      2968.30361172
  Ewald energy   TEWEN  =    -30099.37338892
  -1/2 Hartree   DENC   =     -7059.60649235
  -V(xc)+E(xc)   XCENC  =      -351.91193095
  PAW double counting   =     27861.41421209   -26376.63839568
  entropy T*S    EENTRO =        -0.00090765
  eigenvalues    EBANDS =      -235.83866122
  atomic energy  EATOM  =     33197.19690173
  ---------------------------------------------------
  free energy    TOTEN  =       -96.45505122 eV

  energy without entropy =      -96.45414356  energy(sigma->0) =      -96.45459739


--------------------------------------------------------------------------------------------------------




----------------------------------------- Iteration    1(   6)  ---------------------------------------


    POTLOK:  VPU time    1.57: CPU time    1.61
    SETDIJ:  VPU time    3.26: CPU time    3.34
    EDDAV :  VPU time12480.67: CPU time12646.98
    DOS   :  VPU time    0.00: CPU time   -0.00
    CHARGE:  VPU time  329.85: CPU time  333.82
    MIXING:  VPU time    0.04: CPU time    0.04
    ------------------------------------------
      LOOP:  VPU time12815.62: CPU time12986.04

 eigenvalue-minimisations  : 89120
 total energy-change (2. order) : 0.6302736E+01  (-0.2444492E+01)
 number of electron  352.0000010 magnetization 
 augmentation part   168.9799389 magnetization 

 Broyden mixing:
  rms(total) = 0.27112E+00    rms(broyden)= 0.27112E+00
  rms(prec ) = 0.36491E+00
  weight for this iteration     100.00

 eigenvalues of (default mixing * dielectric matrix)
  average eigenvalue GAMMA=   1.0354
  1.0354

 Free energy of the ion-electron system (eV)
  ---------------------------------------------------
  alpha Z        PSCENC =      2968.30361172
  Ewald energy   TEWEN  =    -30099.37338892
  -1/2 Hartree   DENC   =     -6768.92226381
  -V(xc)+E(xc)   XCENC  =      -362.47499525
  PAW double counting   =     27430.99312201   -25966.75637718
  entropy T*S    EENTRO =        -0.00015212
  eigenvalues    EBANDS =      -489.11877377
  atomic energy  EATOM  =     33197.19690173
  ---------------------------------------------------
  free energy    TOTEN  =       -90.15231558 eV

  energy without entropy =      -90.15216346  energy(sigma->0) =      -90.15223952


--------------------------------------------------------------------------------------------------------




----------------------------------------- Iteration    1(   7)  ---------------------------------------


    POTLOK:  VPU time    1.61: CPU time    1.63
    SETDIJ:  VPU time    3.31: CPU time    3.35
    EDDAV :  VPU time12418.52: CPU time12582.81
    DOS   :  VPU time    0.00: CPU time   -0.00
    CHARGE:  VPU time  329.89: CPU time  333.81
    MIXING:  VPU time    0.04: CPU time    0.04
    ------------------------------------------
      LOOP:  VPU time12753.60: CPU time12921.89

 eigenvalue-minimisations  : 88232
 total energy-change (2. order) : 0.1236593E+00  (-0.4202419E-01)
 number of electron  352.0000010 magnetization 
 augmentation part   169.1890914 magnetization 

 Broyden mixing:
  rms(total) = 0.15197E+00    rms(broyden)= 0.15197E+00
  rms(prec ) = 0.19765E+00
  weight for this iteration     100.00

 eigenvalues of (default mixing * dielectric matrix)
  average eigenvalue GAMMA=   1.7308
  1.0267  2.4349

 Free energy of the ion-electron system (eV)
  ---------------------------------------------------
  alpha Z        PSCENC =      2968.30361172
  Ewald energy   TEWEN  =    -30099.37338892
  -1/2 Hartree   DENC   =     -6734.73255492
  -V(xc)+E(xc)   XCENC  =      -363.83711113
  PAW double counting   =     27492.23996948   -26045.05798826
  entropy T*S    EENTRO =        -0.00014169
  eigenvalues    EBANDS =      -504.76795427
  atomic energy  EATOM  =     33197.19690173
[...]
     72      -1.7273      2.00000
     73      -1.6048      2.00000
     74      -1.6046      2.00000
     75      -1.6034      2.00000
     76      -1.6034      2.00000
     77      -1.6033      2.00000
     78      -1.6033      2.00000
     79      -1.6021      2.00000
     80      -1.6020      2.00000
     81      -1.4628      2.00000
     82      -1.4628      2.00000
     83      -1.4617      2.00000
     84      -1.4616      2.00000
     85      -1.4604      2.00000
     86      -1.4603      2.00000
     87      -1.4603      2.00000
     88      -1.4603      2.00000
     89      -1.4603      2.00000
     90      -1.4602      2.00000
     91      -1.4601      2.00000
     92      -1.4601      2.00000
     93      -1.4601      2.00000
     94      -1.4601      2.00000
     95      -1.4600      2.00000
     96      -1.4600      2.00000
     97      -1.4600      2.00000
     98      -1.4600      2.00000
     99      -1.4600      2.00000
    100      -1.4598      2.00000
    101      -1.4587      2.00000
    102      -1.4585      2.00000
    103      -1.4575      2.00000
    104      -1.4575      2.00000
    105      -1.2068      2.00000
    106      -1.2058      2.00000
    107      -1.2058      2.00000
    108      -1.2043      2.00000
    109      -1.2042      2.00000
    110      -1.2042      2.00000
    111      -1.2042      2.00000
    112      -1.2040      2.00000
    113      -1.2039      2.00000
    114      -1.2039      2.00000
    115      -1.2039      2.00000
    116      -1.2038      2.00000
    117      -1.2038      2.00000
    118      -1.2038      2.00000
    119      -1.2038      2.00000
    120      -1.2038      2.00000
    121      -1.2037      2.00000
    122      -1.2035      2.00000
    123      -1.2035      2.00000
    124      -1.2034      2.00000
    125      -1.2033      2.00000
    126      -1.2018      2.00000
    127      -1.2018      2.00000
    128      -1.2009      2.00000
    129      -0.9474      2.00000
    130      -0.9464      2.00000
    131      -0.9464      2.00000
    132      -0.9464      2.00000
    133      -0.9457      2.00000
    134      -0.9457      2.00000
    135      -0.9455      2.00000
    136      -0.9454      2.00000
    137      -0.9454      2.00000
    138      -0.9453      2.00000
    139      -0.9451      2.00000
    140      -0.9451      2.00000
    141      -0.9444      2.00000
    142      -0.9444      2.00000
    143      -0.9444      2.00000
    144      -0.9433      2.00000
    145      -0.3591      2.00000
    146      -0.3591      2.00000
    147      -0.3589      2.00000
    148      -0.3588      2.00000
    149      -0.3588      2.00000
    150      -0.3588      2.00000
    151      -0.3588      2.00000
    152      -0.3587      2.00000
    153      -0.3587      2.00000
    154      -0.3586      2.00000
    155      -0.3586      2.00000
    156      -0.3586      2.00000
    157      -0.3585      2.00000
    158      -0.3584      2.00000
    159      -0.3584      2.00000
    160      -0.3584      2.00000
    161      -0.3584      2.00000
    162      -0.3583      2.00000
    163      -0.3583      2.00000
    164      -0.3583      2.00000
    165      -0.3582      2.00000
    166      -0.3581      2.00000
    167      -0.3579      2.00000
    168      -0.3579      2.00000
    169       3.4391      0.00000
    170       3.4413      0.00000
    171       3.4413      0.00000
    172       3.4435      0.00000
    173       3.4438      0.00000
    174       3.4439      0.00000
    175       3.4439      0.00000
    176       3.4440      0.00000
    177       3.4440      0.00000
    178       3.4440      0.00000
    179       3.4441      0.00000
    180       3.4441      0.00000
    181       3.4442      0.00000
    182       3.4442      0.00000
    183       3.4443      0.00000
    184       3.4443      0.00000
    185       3.4443      0.00000
    186       3.4444      0.00000
    187       3.4444      0.00000
    188       3.4445      0.00000
    189       3.4448      0.00000
    190       3.4470      0.00000
    191       3.4470      0.00000
    192       3.4492      0.00000
    193       8.1557      0.00000
    194       8.1557      0.00000
    195       8.1577      0.00000
    196       8.1594      0.00000
    197       8.1595      0.00000
    198       8.1599      0.00000
    199       8.1599      0.00000
    200       8.1603      0.00000
    201       8.1603      0.00000
    202       8.1604      0.00000
    203       8.1604      0.00000
    204       8.1604      0.00000
    205       8.1605      0.00000
    206       8.1605      0.00000
    207       8.1605      0.00000
    208       8.1605      0.00000
    209       8.1606      0.00000
    210       8.1609      0.00000
    211       8.1609      0.00000
    212       8.1613      0.00000
    213       8.1615      0.00000
    214       8.1632      0.00000
    215       8.1651      0.00000
    216       8.1651      0.00000


--------------------------------------------------------------------------------------------------------


 soft charge-density along one line, spin component           1
         0         1         2         3         4         5         6         7         8         9
 total charge-density along one line
 
 pseudopotential strength for first ion, spin component:           1
-12.371  -0.000   0.000  -0.000   0.000   0.169   0.000  -0.000
 -0.000 -12.371   0.000  -0.000   0.000   0.000   0.169  -0.000
  0.000   0.000 -12.362   0.000  -0.000  -0.000  -0.000   0.167
 -0.000  -0.000   0.000 -12.371  -0.000   0.000   0.000  -0.000
  0.000   0.000  -0.000  -0.000 -12.362  -0.000  -0.000   0.000
  0.169   0.000  -0.000   0.000  -0.000   0.450  -0.000   0.000
  0.000   0.169  -0.000   0.000  -0.000  -0.000   0.450   0.000
 -0.000  -0.000   0.167  -0.000   0.000   0.000   0.000   0.450
  0.000   0.000  -0.000   0.169   0.000  -0.000  -0.000   0.000
 -0.000  -0.000   0.000   0.000   0.167   0.000   0.000  -0.000
  0.000   0.000   0.000   0.000  -0.000  -0.000  -0.000  -0.000
 -0.000  -0.000  -0.000  -0.000   0.000   0.000   0.000   0.000
 -0.000  -0.000   0.000  -0.000  -0.000   0.000   0.000  -0.000
 -0.000  -0.000   0.000  -0.000  -0.000   0.000   0.000   0.000
 -0.000  -0.000   0.000  -0.000  -0.000   0.000   0.000  -0.000
  0.000   0.000  -0.000   0.000   0.000  -0.000  -0.000   0.000
  0.000  -0.000  -0.000   0.000   0.000  -0.000  -0.000   0.000
  0.000   0.000  -0.000   0.000   0.000  -0.000  -0.000   0.000
 total augmentation occupancy for first ion, spin component:           1
  1.940   0.000  -0.000  -0.000  -0.000  -0.029  -0.000  -0.000   0.000   0.000   0.003  -0.001   0.000   0.000   0.000  -0.000
  0.000   1.942  -0.001  -0.000  -0.001  -0.000  -0.031   0.001   0.000  -0.000   0.002  -0.001  -0.000   0.000  -0.000  -0.000
 -0.000  -0.001   1.967  -0.001  -0.002  -0.000   0.001  -0.057   0.001   0.002   0.012   0.001  -0.000  -0.000  -0.000  -0.000
 -0.000  -0.000  -0.001   1.945  -0.000   0.000   0.000   0.001  -0.034   0.001   0.002  -0.001   0.000   0.000  -0.000  -0.000
 -0.000  -0.001  -0.002  -0.000   1.959   0.000  -0.000   0.002   0.001  -0.051   0.007   0.001   0.000   0.000   0.000   0.000
 -0.029  -0.000  -0.000   0.000   0.000   0.062   0.000   0.001  -0.000  -0.000  -0.001   0.001   0.001  -0.000  -0.000  -0.000
 -0.000  -0.031   0.001   0.000  -0.000   0.000   0.064  -0.002  -0.000   0.001   0.000   0.001   0.000  -0.000   0.000   0.000
 -0.000   0.001  -0.057   0.001   0.002   0.001  -0.002   0.055  -0.001  -0.001  -0.009   0.000   0.000   0.000  -0.000   0.000
  0.000   0.000   0.001  -0.034   0.001  -0.000  -0.000  -0.001   0.066  -0.002   0.001   0.001  -0.000   0.001   0.000   0.000
  0.000  -0.000   0.002   0.001  -0.051  -0.000   0.001  -0.001  -0.002   0.052  -0.005   0.000  -0.000  -0.000   0.000   0.000
  0.003   0.002   0.012   0.002   0.007  -0.001   0.000  -0.009   0.001  -0.005   0.994  -0.317   0.000  -0.000   0.002  -0.000
 -0.001  -0.001   0.001  -0.001   0.001   0.001   0.001   0.000   0.001   0.000  -0.317   0.154   0.000   0.000  -0.001  -0.000
  0.000  -0.000  -0.000   0.000   0.000   0.001   0.000   0.000  -0.000  -0.000   0.000   0.000   0.092   0.000   0.002  -0.005
  0.000   0.000  -0.000   0.000   0.000  -0.000  -0.000   0.000   0.001  -0.000  -0.000   0.000   0.000   0.097  -0.001  -0.000
  0.000  -0.000  -0.000  -0.000   0.000  -0.000   0.000  -0.000   0.000   0.000   0.002  -0.001   0.002  -0.001   0.095  -0.000
 -0.000  -0.000  -0.000  -0.000   0.000  -0.000   0.000   0.000   0.000   0.000  -0.000  -0.000  -0.005  -0.000  -0.000   0.000
 -0.000  -0.000   0.000  -0.000   0.000   0.000   0.000  -0.000  -0.000   0.000   0.000   0.000  -0.000  -0.005  -0.000   0.000
  0.000  -0.000   0.000   0.000  -0.000  -0.000  -0.000   0.000  -0.000  -0.000  -0.000   0.000  -0.000  -0.000  -0.005   0.000


------------------------ aborting loop because EDIFF is reached ----------------------------------------




--------------------------------------------------------------------------------------------------------


    CHARGE:  VPU time  334.59: CPU time  334.71
    FORLOC:  VPU time    0.25: CPU time    0.25
    FORNL :  VPU time  937.46: CPU time  937.92
    STRESS:  VPU time16817.50: CPU time16828.04
    FORCOR:  VPU time    1.69: CPU time    1.69
    FORHAR:  VPU time    0.64: CPU time    0.64
    MIXING:  VPU time    0.05: CPU time    0.05


--------------------------------------------------------------------------------------------------------



  FREE ENERGIE OF THE ION-ELECTRON SYSTEM (eV)
  ---------------------------------------------------
  free  energy   TOTEN  =       -89.964567 eV

  energy  without entropy=      -89.964425  energy(sigma->0) =      -89.964496
 

  FORCE on cell =-STRESS in cart. coord.  units (eV/reduce length):
  Direction    X        Y        Z        XY       YZ       ZX
  --------------------------------------------------------------------------------------
  Alpha Z   2968.30   2968.30   2968.30
  Ewald   -10033.19 -10033.15 -10033.15      0.00      0.00      0.00
  Hartree   2232.80   2232.83   2232.83      0.00     -0.00     -0.00
  E(xc)    -1856.02  -1856.02  -1856.02     -0.00      0.00     -0.00
  Local     3118.67   3118.61   3118.61     -0.00      0.00      0.00
  n-local  -2135.36  -2139.04  -2131.69      1.61      0.91      0.22
  augment   1338.99   1338.99   1338.99     -0.00     -0.00     -0.00
  Kinetic   4348.96   4342.82   4355.10      0.77     -0.63     -2.03
  -------------------------------------------------------------------------------------
  Total      -16.86    -16.86    -16.86     -0.00      0.00      0.00
  in kB      -44.08    -44.08    -44.08     -0.00      0.00      0.00
  external pressure =      -44.08 kB  Pullay stress =        0.00 kB


 VOLUME and BASIS-vectors are now :
 -----------------------------------------------------------------------------
  energy-cutoff  :      750.00
  volume of cell :      612.60
      direct lattice vectors                 reciprocal lattice vectors
     8.492978554  0.000000000  0.000000000     0.117744322  0.000000000  0.000000000
     0.000000000  8.492978554  0.000000000     0.000000000  0.117744322  0.000000000
     0.000000000  0.000000000  8.492978554     0.000000000  0.000000000  0.117744322

  length of vectors
     8.492978554  8.492978554  8.492978554     0.117744322  0.117744322  0.117744322


 FORCES acting on ions
    electron-ion (+dipol)            ewald-force                    non-local-force                 convergence-correction
 -----------------------------------------------------------------------------------------------
   0.369E+01 0.321E-13 0.670E-07   -.369E+01 -.140E-12 0.275E-13   -.302E-01 0.000E+00 0.000E+00   -.164E-04 0.649E-13 -.140E-12
   -.966E+00 0.200E-12 -.680E-07   0.975E+00 -.835E-13 -.266E-13   -.763E-02 0.000E+00 0.000E+00   -.468E-06 0.692E-13 -.227E-12
   0.307E+00 -.918E-14 -.617E-11   -.309E+00 -.355E-13 0.355E-13   0.110E-02 0.508E-20 0.000E+00   0.112E-05 -.238E-12 -.810E-13
   -.246E+00 0.104E-11 -.601E-11   0.242E+00 -.302E-13 -.124E-13   0.320E-02 0.000E+00 0.339E-20   -.255E-05 -.236E-12 -.118E-12
   0.307E+00 0.333E-13 0.291E-10   -.309E+00 -.355E-13 0.249E-13   0.110E-02 0.000E+00 -.169E-20   0.155E-05 0.630E-13 -.283E-13
   -.246E+00 -.923E-14 0.304E-10   0.242E+00 -.126E-12 0.835E-13   0.320E-02 -.339E-20 -.678E-20   -.264E-05 0.659E-13 0.394E-13
   0.129E+00 -.917E-14 0.518E-11   -.127E+00 -.711E-14 0.639E-13   -.130E-02 -.339E-20 0.000E+00   0.367E-05 -.237E-12 -.880E-13
   -.119E+00 -.648E-11 0.701E-11   0.119E+00 -.178E-14 0.551E-13   -.690E-04 0.000E+00 0.265E-22   -.207E-05 -.233E-12 -.681E-13
   -.469E+00 -.899E+00 -.355E-10   0.468E+00 0.900E+00 0.213E-13   0.489E-02 0.367E-02 0.000E+00   0.525E-05 0.483E-05 -.184E-12
   -.472E+00 0.892E+00 -.439E-10   0.471E+00 -.893E+00 0.355E-13   0.489E-02 -.365E-02 0.000E+00   0.340E-05 -.509E-05 -.128E-12
   -.469E+00 0.899E+00 -.357E-10   0.468E+00 -.900E+00 -.409E-13   0.489E-02 -.367E-02 0.000E+00   0.525E-05 -.483E-05 -.141E-12
   -.472E+00 -.892E+00 -.281E-10   0.471E+00 0.893E+00 -.977E-13   0.489E-02 0.365E-02 0.000E+00   0.340E-05 0.509E-05 -.111E-12
   -.130E-01 -.741E-01 0.170E-10   0.143E-01 0.740E-01 0.639E-13   -.109E-02 0.151E-03 0.000E+00   0.615E-06 0.397E-06 0.250E-14
   -.144E-01 0.740E-01 0.176E-10   0.157E-01 -.739E-01 0.497E-13   -.109E-02 -.155E-03 0.424E-21   -.127E-05 -.495E-06 -.458E-13
   -.130E-01 0.741E-01 0.172E-10   0.143E-01 -.740E-01 0.693E-13   -.109E-02 -.151E-03 -.424E-21   0.615E-06 -.397E-06 -.367E-13
   -.144E-01 -.740E-01 0.194E-11   0.157E-01 0.739E-01 0.693E-13   -.109E-02 0.155E-03 0.847E-21   -.127E-05 0.495E-06 -.734E-13
   -.469E+00 -.115E-14 -.899E+00   0.468E+00 0.103E-12 0.900E+00   0.489E-02 -.339E-20 0.367E-02   0.517E-05 0.400E-13 0.490E-05
   -.472E+00 0.975E-14 0.892E+00   0.471E+00 0.462E-13 -.893E+00   0.489E-02 -.339E-20 -.365E-02   0.332E-05 0.722E-13 -.516E-05
   -.130E-01 0.902E-12 -.741E-01   0.143E-01 0.959E-13 0.740E-01   -.109E-02 -.169E-20 0.151E-03   0.636E-06 -.205E-12 0.465E-06
   -.144E-01 0.937E-11 0.740E-01   0.157E-01 0.153E-12 -.739E-01   -.109E-02 0.847E-21 -.155E-03   -.125E-05 -.232E-12 -.563E-06
   -.469E+00 0.821E-13 0.899E+00   0.468E+00 0.728E-13 -.900E+00   0.489E-02 -.339E-20 -.367E-02   0.517E-05 0.805E-13 -.490E-05
   -.472E+00 0.459E-13 -.892E+00   0.471E+00 0.728E-13 0.893E+00   0.489E-02 0.339E-20 0.365E-02   0.332E-05 0.943E-13 0.516E-05
   -.130E-01 0.122E-11 0.741E-01   0.143E-01 0.126E-12 -.740E-01   -.109E-02 0.000E+00 -.151E-03   0.636E-06 -.244E-12 -.465E-06
   -.144E-01 -.689E-11 -.740E-01   0.157E-01 0.183E-12 0.739E-01   -.109E-02 0.000E+00 0.155E-03   -.125E-05 -.255E-12 0.563E-06
   0.580E+00 0.216E-02 0.216E-02   -.582E+00 -.216E-02 -.216E-02   0.126E-02 -.113E-04 -.113E-04   -.760E-06 -.129E-06 -.129E-06
   -.326E+00 -.633E-03 -.633E-03   0.327E+00 0.646E-03 0.646E-03   -.121E-02 -.110E-04 -.110E-04   -.273E-05 -.992E-07 -.991E-07
   0.580E+00 -.216E-02 0.216E-02   -.582E+00 0.216E-02 -.216E-02   0.126E-02 0.113E-04 -.113E-04   -.760E-06 0.129E-06 -.129E-06
   -.326E+00 0.633E-03 -.633E-03   0.327E+00 -.646E-03 0.646E-03   -.121E-02 0.110E-04 -.110E-04   -.273E-05 0.992E-07 -.991E-07
   0.580E+00 0.216E-02 -.216E-02   -.582E+00 -.216E-02 0.216E-02   0.126E-02 -.113E-04 0.113E-04   -.760E-06 -.129E-06 0.129E-06
   -.326E+00 -.633E-03 0.633E-03   0.327E+00 0.646E-03 -.646E-03   -.121E-02 -.110E-04 0.110E-04   -.273E-05 -.992E-07 0.991E-07
   0.580E+00 -.216E-02 -.216E-02   -.582E+00 0.216E-02 0.216E-02   0.126E-02 0.113E-04 0.113E-04   -.760E-06 0.129E-06 0.129E-06
   -.326E+00 0.633E-03 0.633E-03   0.327E+00 -.646E-03 -.646E-03   -.121E-02 0.110E-04 0.110E-04   -.273E-05 0.992E-07 0.991E-07
 -----------------------------------------------------------------------------------------------
   -.428E-06 0.162E-11 -.417E-09   0.866E-14 0.571E-13 0.498E-13   -.322E-05 -.102E-19 -.271E-19   0.574E-08 -.780E-12 -.834E-12
 
 
 POSITION                                       TOTAL-FORCE (eV/Angst)
 -----------------------------------------------------------------------------------
      0.01000      0.00000      0.00000        -0.032223      0.000000     -0.000000
      4.24649      0.00000      0.00000         0.001056      0.000000     -0.000000
      0.00000      4.24649      0.00000        -0.000312      0.000000      0.000000
      4.24649      4.24649      0.00000        -0.000438      0.000000     -0.000000
      0.00000      0.00000      4.24649        -0.000312     -0.000000     -0.000000
      4.24649      0.00000      4.24649        -0.000438      0.000000      0.000000
      0.00000      4.24649      4.24649        -0.000038      0.000000      0.000000
      4.24649      4.24649      4.24649        -0.000165     -0.000000      0.000000
      2.12324      2.12324      0.00000         0.004045      0.004738     -0.000000
      6.36973      2.12324      0.00000         0.003900     -0.004545      0.000000
      2.12324      6.36973      0.00000         0.004045     -0.004738      0.000000
      6.36973      6.36973      0.00000         0.003900      0.004545      0.000000
      2.12324      2.12324      4.24649         0.000229      0.000072      0.000000
      6.36973      2.12324      4.24649         0.000228     -0.000072      0.000000
      2.12324      6.36973      4.24649         0.000229     -0.000072     -0.000000
      6.36973      6.36973      4.24649         0.000228      0.000072     -0.000000
      2.12324      0.00000      2.12324         0.004045     -0.000000      0.004738
      6.36973      0.00000      2.12324         0.003900      0.000000     -0.004545
      2.12324      4.24649      2.12324         0.000229      0.000000      0.000072
      6.36973      4.24649      2.12324         0.000228      0.000000     -0.000072
      2.12324      0.00000      6.36973         0.004045      0.000000     -0.004738
      6.36973      0.00000      6.36973         0.003900      0.000000      0.004545
      2.12324      4.24649      6.36973         0.000229      0.000000     -0.000072
      6.36973      4.24649      6.36973         0.000228     -0.000000      0.000072
      0.00000      2.12324      2.12324        -0.000746     -0.000006     -0.000006
      4.24649      2.12324      2.12324         0.000562      0.000002      0.000002
      0.00000      6.36973      2.12324        -0.000746      0.000006     -0.000006
      4.24649      6.36973      2.12324         0.000562     -0.000002      0.000002
      0.00000      2.12324      6.36973        -0.000746     -0.000006      0.000006
      4.24649      2.12324      6.36973         0.000562      0.000002     -0.000002
      0.00000      6.36973      6.36973        -0.000746      0.000006      0.000006
      4.24649      6.36973      6.36973         0.000562     -0.000002     -0.000002
 -----------------------------------------------------------------------------------
    total drift:                               -0.000004      0.000000     -0.000000


--------------------------------------------------------------------------------------------------------



 mean value of Nose-termostat <S>:     1.000 mean value of <T> :     0.000
 mean temperature <T/S>/<1/S>  :     0.000

     LOOP+:  VPU time********: CPU time********
  
  
 General timing and accounting informations for this job:
 ========================================================
  
                  Total CPU time used (sec):   209830.548
                            User time (sec):   207815.192
                          System time (sec):     2015.356
                         Elapsed time (sec):   210609.730
  
                   Maximum memory used (kb):     8589240.
                   Average memory used (kb):           0.
  
                          Minor page faults:      1162929
                          Major page faults:            2
                 Voluntary context switches:         1063
