  36  36   0   0
  0.1728916E+02  0.8820702E-09  0.8820702E-09  0.9207475E-09  0.5000000E-15
  1.000000000000000E-004
  CAR 
 unknown system                          
      8.81720722    -29.23029094  301      5.96106859      1.00000000
    -29.230  0.0000E+00  0.0000E+00
    -29.103  0.0000E+00  0.0000E+00
    -28.977  0.0000E+00  0.0000E+00
    -28.850  0.0000E+00  0.0000E+00
    -28.723  0.0000E+00  0.0000E+00
    -28.596  0.0000E+00  0.0000E+00
    -28.469  0.0000E+00  0.0000E+00
    -28.343  0.0000E+00  0.0000E+00
    -28.216  0.0000E+00  0.0000E+00
    -28.089  0.0000E+00  0.0000E+00
    -27.962  0.0000E+00  0.0000E+00
    -27.835  0.0000E+00  0.0000E+00
    -27.708  0.0000E+00  0.0000E+00
    -27.582  0.0000E+00  0.0000E+00
    -27.455  0.5102E+01  0.6471E+00
    -27.328  0.1132E+03  0.1646E+02
    -27.201  0.1353E+03  0.5113E+02
    -27.074  0.1357E+03  0.7755E+02
    -26.947  0.2365E+03  0.1182E+03
    -26.821  0.3962E+03  0.1918E+03
    -26.694  0.4898E+02  0.2160E+03
    -26.567  0.0000E+00  0.2160E+03
    -26.440  0.0000E+00  0.2160E+03
    -26.313  0.0000E+00  0.2160E+03
    -26.186  0.0000E+00  0.2160E+03
    -26.060  0.0000E+00  0.2160E+03
    -25.933  0.0000E+00  0.2160E+03
    -25.806  0.0000E+00  0.2160E+03
    -25.679  0.0000E+00  0.2160E+03
    -25.552  0.0000E+00  0.2160E+03
    -25.426  0.0000E+00  0.2160E+03
    -25.299  0.0000E+00  0.2160E+03
    -25.172  0.0000E+00  0.2160E+03
    -25.045  0.0000E+00  0.2160E+03
    -24.918  0.0000E+00  0.2160E+03
    -24.791  0.0000E+00  0.2160E+03
    -24.665  0.0000E+00  0.2160E+03
    -24.538  0.0000E+00  0.2160E+03
    -24.411  0.0000E+00  0.2160E+03
    -24.284  0.0000E+00  0.2160E+03
    -24.157  0.0000E+00  0.2160E+03
    -24.030  0.0000E+00  0.2160E+03
    -23.904  0.0000E+00  0.2160E+03
    -23.777  0.0000E+00  0.2160E+03
    -23.650  0.0000E+00  0.2160E+03
    -23.523  0.0000E+00  0.2160E+03
    -23.396  0.0000E+00  0.2160E+03
    -23.270  0.0000E+00  0.2160E+03
    -23.143  0.0000E+00  0.2160E+03
    -23.016  0.0000E+00  0.2160E+03
    -22.889  0.0000E+00  0.2160E+03
    -22.762  0.0000E+00  0.2160E+03
    -22.635  0.0000E+00  0.2160E+03
    -22.509  0.0000E+00  0.2160E+03
    -22.382  0.0000E+00  0.2160E+03
    -22.255  0.0000E+00  0.2160E+03
    -22.128  0.0000E+00  0.2160E+03
    -22.001  0.0000E+00  0.2160E+03
    -21.874  0.0000E+00  0.2160E+03
    -21.748  0.0000E+00  0.2160E+03
    -21.621  0.0000E+00  0.2160E+03
    -21.494  0.0000E+00  0.2160E+03
    -21.367  0.0000E+00  0.2160E+03
    -21.240  0.0000E+00  0.2160E+03
    -21.113  0.0000E+00  0.2160E+03
    -20.987  0.0000E+00  0.2160E+03
    -20.860  0.0000E+00  0.2160E+03
    -20.733  0.0000E+00  0.2160E+03
    -20.606  0.0000E+00  0.2160E+03
    -20.479  0.0000E+00  0.2160E+03
    -20.353  0.0000E+00  0.2160E+03
    -20.226  0.0000E+00  0.2160E+03
    -20.099  0.0000E+00  0.2160E+03
    -19.972  0.0000E+00  0.2160E+03
    -19.845  0.0000E+00  0.2160E+03
    -19.718  0.0000E+00  0.2160E+03
    -19.592  0.0000E+00  0.2160E+03
    -19.465  0.0000E+00  0.2160E+03
    -19.338  0.0000E+00  0.2160E+03
    -19.211  0.0000E+00  0.2160E+03
    -19.084  0.0000E+00  0.2160E+03
    -18.957  0.0000E+00  0.2160E+03
    -18.831  0.0000E+00  0.2160E+03
    -18.704  0.0000E+00  0.2160E+03
    -18.577  0.0000E+00  0.2160E+03
    -18.450  0.0000E+00  0.2160E+03
    -18.323  0.0000E+00  0.2160E+03
    -18.197  0.0000E+00  0.2160E+03
    -18.070  0.0000E+00  0.2160E+03
    -17.943  0.0000E+00  0.2160E+03
    -17.816  0.0000E+00  0.2160E+03
    -17.689  0.0000E+00  0.2160E+03
    -17.562  0.0000E+00  0.2160E+03
    -17.436  0.0000E+00  0.2160E+03
    -17.309  0.0000E+00  0.2160E+03
    -17.182  0.0000E+00  0.2160E+03
    -17.055  0.0000E+00  0.2160E+03
    -16.928  0.0000E+00  0.2160E+03
    -16.801  0.0000E+00  0.2160E+03
    -16.675  0.0000E+00  0.2160E+03
    -16.548  0.0000E+00  0.2160E+03
    -16.421  0.0000E+00  0.2160E+03
    -16.294  0.0000E+00  0.2160E+03
    -16.167  0.0000E+00  0.2160E+03
    -16.040  0.0000E+00  0.2160E+03
    -15.914  0.0000E+00  0.2160E+03
    -15.787  0.0000E+00  0.2160E+03
    -15.660  0.0000E+00  0.2160E+03
    -15.533  0.0000E+00  0.2160E+03
    -15.406  0.0000E+00  0.2160E+03
    -15.280  0.0000E+00  0.2160E+03
    -15.153  0.0000E+00  0.2160E+03
    -15.026  0.0000E+00  0.2160E+03
    -14.899  0.0000E+00  0.2160E+03
    -14.772  0.0000E+00  0.2160E+03
    -14.645  0.0000E+00  0.2160E+03
    -14.519  0.0000E+00  0.2160E+03
    -14.392  0.0000E+00  0.2160E+03
    -14.265  0.0000E+00  0.2160E+03
    -14.138  0.0000E+00  0.2160E+03
    -14.011  0.0000E+00  0.2160E+03
    -13.884  0.0000E+00  0.2160E+03
    -13.758  0.0000E+00  0.2160E+03
    -13.631  0.0000E+00  0.2160E+03
    -13.504  0.0000E+00  0.2160E+03
    -13.377  0.0000E+00  0.2160E+03
    -13.250  0.0000E+00  0.2160E+03
    -13.124  0.0000E+00  0.2160E+03
    -12.997  0.0000E+00  0.2160E+03
    -12.870  0.0000E+00  0.2160E+03
    -12.743  0.0000E+00  0.2160E+03
    -12.616  0.0000E+00  0.2160E+03
    -12.489  0.0000E+00  0.2160E+03
    -12.363  0.0000E+00  0.2160E+03
    -12.236  0.0000E+00  0.2160E+03
    -12.109  0.0000E+00  0.2160E+03
    -11.982  0.0000E+00  0.2160E+03
    -11.855  0.0000E+00  0.2160E+03
    -11.728  0.0000E+00  0.2160E+03
    -11.602  0.0000E+00  0.2160E+03
    -11.475  0.0000E+00  0.2160E+03
    -11.348  0.0000E+00  0.2160E+03
    -11.221  0.0000E+00  0.2160E+03
    -11.094  0.0000E+00  0.2160E+03
    -10.967  0.0000E+00  0.2160E+03
    -10.841  0.0000E+00  0.2160E+03
    -10.714  0.0000E+00  0.2160E+03
    -10.587  0.0000E+00  0.2160E+03
    -10.460  0.0000E+00  0.2160E+03
    -10.333  0.0000E+00  0.2160E+03
    -10.207  0.0000E+00  0.2160E+03
    -10.080  0.0000E+00  0.2160E+03
     -9.953  0.0000E+00  0.2160E+03
     -9.826  0.0000E+00  0.2160E+03
     -9.699  0.0000E+00  0.2160E+03
     -9.572  0.0000E+00  0.2160E+03
     -9.446  0.0000E+00  0.2160E+03
     -9.319  0.0000E+00  0.2160E+03
     -9.192  0.0000E+00  0.2160E+03
     -9.065  0.0000E+00  0.2160E+03
     -8.938  0.0000E+00  0.2160E+03
     -8.811  0.0000E+00  0.2160E+03
     -8.685  0.0000E+00  0.2160E+03
     -8.558  0.0000E+00  0.2160E+03
     -8.431  0.0000E+00  0.2160E+03
     -8.304  0.0000E+00  0.2160E+03
     -8.177  0.0000E+00  0.2160E+03
     -8.051  0.0000E+00  0.2160E+03
     -7.924  0.0000E+00  0.2160E+03
     -7.797  0.0000E+00  0.2160E+03
     -7.670  0.0000E+00  0.2160E+03
     -7.543  0.0000E+00  0.2160E+03
     -7.416  0.0000E+00  0.2160E+03
     -7.290  0.0000E+00  0.2160E+03
     -7.163  0.0000E+00  0.2160E+03
     -7.036  0.0000E+00  0.2160E+03
     -6.909  0.0000E+00  0.2160E+03
     -6.782  0.0000E+00  0.2160E+03
     -6.655  0.0000E+00  0.2160E+03
     -6.529  0.0000E+00  0.2160E+03
     -6.402  0.0000E+00  0.2160E+03
     -6.275  0.0000E+00  0.2160E+03
     -6.148  0.0000E+00  0.2160E+03
     -6.021  0.0000E+00  0.2160E+03
     -5.894  0.0000E+00  0.2160E+03
     -5.768  0.0000E+00  0.2160E+03
     -5.641  0.0000E+00  0.2160E+03
     -5.514  0.0000E+00  0.2160E+03
     -5.387  0.0000E+00  0.2160E+03
     -5.260  0.0000E+00  0.2160E+03
     -5.134  0.0000E+00  0.2160E+03
     -5.007  0.0000E+00  0.2160E+03
     -4.880  0.0000E+00  0.2160E+03
     -4.753  0.0000E+00  0.2160E+03
     -4.626  0.0000E+00  0.2160E+03
     -4.499  0.0000E+00  0.2160E+03
     -4.373  0.0000E+00  0.2160E+03
     -4.246  0.0000E+00  0.2160E+03
     -4.119  0.0000E+00  0.2160E+03
     -3.992  0.0000E+00  0.2160E+03
     -3.865  0.0000E+00  0.2160E+03
     -3.738  0.0000E+00  0.2160E+03
     -3.612  0.0000E+00  0.2160E+03
     -3.485  0.0000E+00  0.2160E+03
     -3.358  0.0000E+00  0.2160E+03
     -3.231  0.0000E+00  0.2160E+03
     -3.104  0.0000E+00  0.2160E+03
     -2.978  0.0000E+00  0.2160E+03
     -2.851  0.0000E+00  0.2160E+03
     -2.724  0.0000E+00  0.2160E+03
     -2.597  0.0000E+00  0.2160E+03
     -2.470  0.0000E+00  0.2160E+03
     -2.343  0.0000E+00  0.2160E+03
     -2.217  0.0000E+00  0.2160E+03
     -2.090  0.0000E+00  0.2160E+03
     -1.963  0.0000E+00  0.2160E+03
     -1.836  0.0000E+00  0.2160E+03
     -1.709  0.0000E+00  0.2160E+03
     -1.582  0.0000E+00  0.2160E+03
     -1.456  0.0000E+00  0.2160E+03
     -1.329  0.0000E+00  0.2160E+03
     -1.202  0.0000E+00  0.2160E+03
     -1.075  0.0000E+00  0.2160E+03
     -0.948  0.0000E+00  0.2160E+03
     -0.821  0.0000E+00  0.2160E+03
     -0.695  0.0000E+00  0.2160E+03
     -0.568  0.0000E+00  0.2160E+03
     -0.441  0.0000E+00  0.2160E+03
     -0.314  0.0000E+00  0.2160E+03
     -0.187  0.6435E-01  0.2160E+03
     -0.061  0.5629E+00  0.2161E+03
      0.066  0.8951E+00  0.2163E+03
      0.193  0.1344E+01  0.2165E+03
      0.320  0.2096E+01  0.2169E+03
      0.447  0.1541E+01  0.2172E+03
      0.574  0.2149E+01  0.2175E+03
      0.700  0.2342E+01  0.2181E+03
      0.827  0.1494E+01  0.2184E+03
      0.954  0.3817E+01  0.2190E+03
      1.081  0.3470E+01  0.2195E+03
      1.208  0.3750E+00  0.2198E+03
      1.335  0.4562E+01  0.2208E+03
      1.461  0.3864E+01  0.2214E+03
      1.588  0.3848E+01  0.2220E+03
      1.715  0.3953E+01  0.2228E+03
      1.842  0.3307E+01  0.2236E+03
      1.969  0.3621E+01  0.2244E+03
      2.095  0.4702E+01  0.2254E+03
      2.222  0.3090E+01  0.2264E+03
      2.349  0.6028E+01  0.2273E+03
      2.476  0.7073E+01  0.2287E+03
      2.603  0.6798E+01  0.2300E+03
      2.730  0.4362E+01  0.2312E+03
      2.856  0.7266E+01  0.2328E+03
      2.983  0.8694E+01  0.2347E+03
      3.110  0.1229E+02  0.2369E+03
      3.237  0.1270E+02  0.2397E+03
      3.364  0.1713E+02  0.2428E+03
      3.491  0.2528E+02  0.2485E+03
      3.617  0.2484E+02  0.2525E+03
      3.744  0.2201E+02  0.2566E+03
      3.871  0.2414E+02  0.2610E+03
      3.998  0.1943E+02  0.2667E+03
      4.125  0.3207E+02  0.2726E+03
      4.252  0.3928E+02  0.2794E+03
      4.378  0.3412E+02  0.2871E+03
      4.505  0.1838E+02  0.2915E+03
      4.632  0.2522E+02  0.2968E+03
      4.759  0.2142E+02  0.3016E+03
      4.886  0.2978E+02  0.3086E+03
      5.012  0.2886E+02  0.3144E+03
      5.139  0.4183E+02  0.3229E+03
      5.266  0.3773E+02  0.3311E+03
      5.393  0.5131E+02  0.3406E+03
      5.520  0.2719E+02  0.3474E+03
      5.647  0.1781E+02  0.3509E+03
      5.773  0.2151E+02  0.3545E+03
      5.900  0.1087E+02  0.3573E+03
      6.027  0.2259E+02  0.3624E+03
      6.154  0.4828E+02  0.3702E+03
      6.281  0.5106E+02  0.3802E+03
      6.408  0.5558E+02  0.3908E+03
      6.534  0.4187E+02  0.3993E+03
      6.661  0.4835E+02  0.4086E+03
      6.788  0.6647E+02  0.4202E+03
      6.915  0.4424E+02  0.4295E+03
      7.042  0.4699E+01  0.4319E+03
      7.168  0.0000E+00  0.4320E+03
      7.295  0.0000E+00  0.4320E+03
      7.422  0.0000E+00  0.4320E+03
      7.549  0.0000E+00  0.4320E+03
      7.676  0.0000E+00  0.4320E+03
      7.803  0.0000E+00  0.4320E+03
      7.929  0.0000E+00  0.4320E+03
      8.056  0.0000E+00  0.4320E+03
      8.183  0.0000E+00  0.4320E+03
      8.310  0.0000E+00  0.4320E+03
      8.437  0.0000E+00  0.4320E+03
      8.564  0.0000E+00  0.4320E+03
      8.690  0.0000E+00  0.4320E+03
      8.817  0.0000E+00  0.4320E+03
