   36   36    1    1
  0.1728916E+02  0.8820702E-09  0.8820702E-09  0.9207474E-09  0.5000000E-15
  1.000000000000000E-004
  CAR 
 unknown system                          
  360  123  216
 
  0.0000000E+00  0.0000000E+00  0.0000000E+00  0.4081633E-02
   1      -27.5009
   2      -27.3028
   3      -27.3026
   4      -27.3026
   5      -27.3025
   6      -27.2971
   7      -27.2967
   8      -27.2963
   9      -27.2962
  10      -27.2962
  11      -27.2959
  12      -27.2943
  13      -27.2942
  14      -27.2941
  15      -27.2940
  16      -27.2939
  17      -27.2939
  18      -27.2938
  19      -27.2937
  20      -27.2909
  21      -27.2908
  22      -27.2907
  23      -27.2906
  24      -27.2176
  25      -27.2172
  26      -27.1840
  27      -27.1838
  28      -27.1829
  29      -27.1828
  30      -27.1827
  31      -27.1826
  32      -27.1426
  33      -27.1420
  34      -27.1012
  35      -27.1009
  36      -27.0992
  37      -27.0989
  38      -27.0967
  39      -27.0963
  40      -27.0963
  41      -27.0959
  42      -27.0655
  43      -27.0654
  44      -27.0653
  45      -27.0653
  46      -27.0650
  47      -27.0646
  48      -27.0644
  49      -27.0643
  50      -27.0599
  51      -27.0596
  52      -26.9728
  53      -26.9724
  54      -26.9541
  55      -26.9541
  56      -26.9438
  57      -26.9438
  58      -26.9437
  59      -26.9435
  60      -26.9184
  61      -26.9182
  62      -26.9180
  63      -26.9179
  64      -26.9163
  65      -26.9160
  66      -26.9160
  67      -26.9158
  68      -26.9158
  69      -26.9158
  70      -26.9154
  71      -26.9152
  72      -26.8771
  73      -26.8766
  74      -26.8766
  75      -26.8762
  76      -26.8734
  77      -26.8729
  78      -26.8692
  79      -26.8691
  80      -26.8690
  81      -26.8688
  82      -26.8607
  83      -26.8604
  84      -26.8603
  85      -26.8603
  86      -26.8602
  87      -26.8601
  88      -26.8599
  89      -26.8599
  90      -26.8543
  91      -26.8543
  92      -26.8542
  93      -26.8541
  94      -26.8437
  95      -26.8339
  96      -26.7879
  97      -26.7877
  98      -26.7827
  99      -26.7826
 100      -26.7809
 101      -26.7808
 102      -26.7758
 103      -26.7757
 104      -26.7757
 105      -26.7754
 106      -26.7650
 107      -26.7315
 108      -26.7274
 109       -0.2115
 110        1.6772
 111        1.6774
 112        2.3383
 113        2.3386
 114        2.3387
 115        2.3390
 116        2.3551
 117        2.3554
 118        3.2430
 119        3.2432
 120        3.2434
 121        3.2436
 122        3.2437
 123        3.2437
 124        3.2440
 125        3.2443
 126        3.2573
 127        3.2574
 128        3.2575
 129        3.2581
 130        3.2737
 131        4.1928
 132        4.1935
 133        4.2013
 134        4.2017
 135        4.2018
 136        4.2024
 137        4.2274
 138        4.2290
 139        4.5192
 140        4.5193
 141        4.5265
 142        4.5277
 143        4.5308
 144        4.5309
 145        4.5505
 146        4.5507
 147        4.5508
 148        4.5522
 149        4.6340
 150        4.6341
 151        4.6902
 152        4.6912
 153        4.6919
 154        4.6930
 155        4.8668
 156        4.8681
 157        4.8682
 158        4.8695
 159        5.2769
 160        5.2789
 161        5.2790
 162        5.2795
 163        5.2796
 164        5.2797
 165        5.2799
 166        5.2808
 167        5.2812
 168        5.2821
 169        5.2824
 170        5.2836
 171        5.3003
 172        5.3013
 173        5.3013
 174        5.3021
 175        5.3288
 176        5.3304
 177        5.7366
 178        5.7367
 179        5.7367
 180        5.7369
 181        6.0798
 182        6.0826
 183        6.1595
 184        6.1606
 185        6.2141
 186        6.2157
 187        6.5297
 188        6.5309
 189        6.5313
 190        6.5318
 191        6.5321
 192        6.5323
 193        6.5328
 194        6.5332
 195        6.5503
 196        6.5511
 197        6.5564
 198        6.5566
 199        6.5712
 200        6.5721
 201        6.5726
 202        6.5737
 203        6.6037
 204        6.6038
 205        6.6042
 206        6.6051
 207        6.6165
 208        6.6166
 209        6.6579
 210        6.7517
 211        6.7883
 212        6.7903
 213        6.7918
 214        6.7946
 215        6.7974
 216        6.8315
 
  0.1428571E+00 -0.1387779E-16  0.0000000E+00  0.8163265E-02
   1      -27.4958
   2      -27.3418
   3      -27.3325
   4      -27.3325
   5      -27.3166
   6      -27.3162
   7      -27.3127
   8      -27.3126
   9      -27.3101
  10      -27.3100
  11      -27.3080
  12      -27.3080
  13      -27.3076
  14      -27.3076
  15      -27.2732
  16      -27.2731
  17      -27.2718
  18      -27.2708
  19      -27.2700
  20      -27.2698
  21      -27.2521
  22      -27.2519
  23      -27.2516
  24      -27.2365
  25      -27.2237
  26      -27.2209
  27      -27.2111
  28      -27.2085
  29      -27.1513
  30      -27.1508
  31      -27.1443
  32      -27.1437
  33      -27.1189
  34      -27.1139
  35      -27.1132
  36      -27.1100
  37      -27.1005
  38      -27.0970
  39      -27.0928
  40      -27.0916
  41      -27.0863
  42      -27.0860
  43      -27.0860
  44      -27.0855
  45      -27.0839
  46      -27.0836
  47      -27.0436
  48      -27.0425
  49      -27.0292
  50      -27.0248
  51      -27.0065
  52      -26.9648
  53      -26.9593
  54      -26.9582
  55      -26.9577
  56      -26.9553
  57      -26.9439
  58      -26.9346
  59      -26.9279
  60      -26.9277
  61      -26.9249
  62      -26.9240
  63      -26.9239
  64      -26.9199
  65      -26.9197
  66      -26.9189
  67      -26.9188
  68      -26.9169
  69      -26.9167
  70      -26.9070
  71      -26.9069
  72      -26.9063
  73      -26.8935
  74      -26.8895
  75      -26.8732
  76      -26.8730
  77      -26.8722
  78      -26.8720
  79      -26.8656
  80      -26.8654
  81      -26.8635
  82      -26.8613
  83      -26.8611
  84      -26.8609
  85      -26.8553
  86      -26.8553
  87      -26.8547
  88      -26.8547
  89      -26.8538
  90      -26.8536
  91      -26.8525
  92      -26.8483
  93      -26.8461
  94      -26.8459
  95      -26.8385
  96      -26.7939
  97      -26.7938
  98      -26.7932
  99      -26.7864
 100      -26.7841
 101      -26.7840
 102      -26.7837
 103      -26.7832
 104      -26.7768
 105      -26.7673
 106      -26.7661
 107      -26.7413
 108      -26.7294
 109       -0.1480
 110        1.7309
 111        1.7312
 112        1.7834
 113        2.1056
 114        2.1187
 115        2.6409
 116        2.6597
 117        2.8541
 118        3.0442
 119        3.0444
 120        3.1891
 121        3.1893
 122        3.2010
 123        3.2012
 124        3.3231
 125        3.3412
 126        3.3415
 127        3.3498
 128        3.3501
 129        3.3552
 130        3.3555
 131        4.0861
 132        4.1696
 133        4.1789
 134        4.2237
 135        4.2323
 136        4.2404
 137        4.2609
 138        4.2699
 139        4.3402
 140        4.3731
 141        4.3834
 142        4.4134
 143        4.4397
 144        4.4566
 145        4.4574
 146        4.4591
 147        4.4599
 148        4.5337
 149        4.5636
 150        4.6533
 151        4.6615
 152        4.6725
 153        4.6842
 154        4.8264
 155        5.0969
 156        5.0977
 157        5.1048
 158        5.1056
 159        5.2257
 160        5.2268
 161        5.2490
 162        5.2623
 163        5.2633
 164        5.2639
 165        5.2644
 166        5.2674
 167        5.2742
 168        5.2932
 169        5.3177
 170        5.3188
 171        5.3209
 172        5.3217
 173        5.3223
 174        5.3440
 175        5.3452
 176        5.3794
 177        5.7248
 178        5.7251
 179        5.7282
 180        5.7285
 181        6.0235
 182        6.0261
 183        6.1015
 184        6.1473
 185        6.2670
 186        6.3159
 187        6.3895
 188        6.3900
 189        6.3903
 190        6.3908
 191        6.4228
 192        6.4233
 193        6.4483
 194        6.4920
 195        6.4942
 196        6.5428
 197        6.5608
 198        6.5629
 199        6.5634
 200        6.5675
 201        6.5676
 202        6.5933
 203        6.6045
 204        6.6051
 205        6.6441
 206        6.6441
 207        6.7007
 208        6.7025
 209        6.7253
 210        6.7358
 211        6.7434
 212        6.7729
 213        6.7765
 214        6.7810
 215        6.7886
 216        6.7897
 
  0.2857143E+00 -0.2775558E-16  0.0000000E+00  0.8163265E-02
   1      -27.4808
   2      -27.3853
   3      -27.3615
   4      -27.3615
   5      -27.3302
   6      -27.3300
   7      -27.3258
   8      -27.3258
   9      -27.3239
  10      -27.3238
  11      -27.3191
  12      -27.3191
  13      -27.3186
  14      -27.3185
  15      -27.2752
  16      -27.2547
  17      -27.2546
  18      -27.2522
  19      -27.2520
  20      -27.2422
  21      -27.2408
  22      -27.2340
  23      -27.2302
  24      -27.2296
  25      -27.2264
  26      -27.2139
  27      -27.2129
  28      -27.2126
  29      -27.1500
  30      -27.1495
  31      -27.1483
  32      -27.1374
  33      -27.1344
  34      -27.1273
  35      -27.1231
  36      -27.1170
  37      -27.1167
  38      -27.1152
  39      -27.1139
  40      -27.0614
  41      -27.0602
  42      -27.0581
  43      -27.0579
  44      -27.0539
  45      -27.0536
  46      -27.0507
  47      -27.0389
  48      -27.0382
  49      -26.9963
  50      -26.9916
  51      -26.9814
  52      -26.9737
  53      -26.9704
  54      -26.9512
  55      -26.9510
  56      -26.9456
  57      -26.9454
  58      -26.9421
  59      -26.9338
  60      -26.9264
  61      -26.9245
  62      -26.9230
  63      -26.9228
  64      -26.9226
  65      -26.9213
  66      -26.9211
  67      -26.9210
  68      -26.9209
  69      -26.9208
  70      -26.9142
  71      -26.9097
  72      -26.9042
  73      -26.8910
  74      -26.8909
  75      -26.8807
  76      -26.8806
  77      -26.8805
  78      -26.8713
  79      -26.8712
  80      -26.8661
  81      -26.8660
  82      -26.8580
  83      -26.8579
  84      -26.8567
  85      -26.8566
  86      -26.8546
  87      -26.8545
  88      -26.8544
  89      -26.8530
  90      -26.8497
  91      -26.8496
  92      -26.8493
  93      -26.8307
  94      -26.8306
  95      -26.8232
  96      -26.8152
  97      -26.8123
  98      -26.8122
  99      -26.8092
 100      -26.7923
 101      -26.7914
 102      -26.7913
 103      -26.7898
 104      -26.7874
 105      -26.7743
 106      -26.7716
 107      -26.7561
 108      -26.7331
 109        0.0400
 110        1.2410
 111        1.8875
 112        1.8878
 113        1.9487
 114        1.9570
 115        2.7598
 116        2.7599
 117        2.9996
 118        3.0191
 119        3.1674
 120        3.1675
 121        3.1755
 122        3.1756
 123        3.2734
 124        3.3919
 125        3.3923
 126        3.4651
 127        3.4863
 128        3.4866
 129        3.4988
 130        3.4991
 131        3.9507
 132        4.1288
 133        4.1408
 134        4.1447
 135        4.1719
 136        4.1724
 137        4.1739
 138        4.1743
 139        4.1906
 140        4.1974
 141        4.2025
 142        4.2228
 143        4.2388
 144        4.3246
 145        4.3516
 146        4.3575
 147        4.3665
 148        4.4336
 149        4.4604
 150        4.7693
 151        4.7760
 152        4.7820
 153        4.7950
 154        5.1518
 155        5.1596
 156        5.1735
 157        5.1834
 158        5.1845
 159        5.2315
 160        5.2552
 161        5.2626
 162        5.2772
 163        5.2783
 164        5.2818
 165        5.2828
 166        5.3352
 167        5.3361
 168        5.3367
 169        5.3372
 170        5.3592
 171        5.3603
 172        5.3616
 173        5.3624
 174        5.4355
 175        5.4368
 176        5.5359
 177        5.7496
 178        5.7500
 179        5.7556
 180        5.7560
 181        5.8878
 182        5.8900
 183        6.0896
 184        6.1321
 185        6.2397
 186        6.2402
 187        6.2617
 188        6.2621
 189        6.3109
 190        6.3190
 191        6.3558
 192        6.3747
 193        6.3752
 194        6.3772
 195        6.3964
 196        6.4178
 197        6.4404
 198        6.4410
 199        6.4442
 200        6.4769
 201        6.4775
 202        6.5059
 203        6.5200
 204        6.5623
 205        6.5623
 206        6.6394
 207        6.7064
 208        6.7123
 209        6.7334
 210        6.7360
 211        6.7363
 212        6.7395
 213        6.7769
 214        6.9014
 215        6.9036
 216        6.9713
 
  0.4285714E+00  0.0000000E+00  0.0000000E+00  0.8163265E-02
   1      -27.4566
   2      -27.4242
   3      -27.3770
   4      -27.3770
   5      -27.3372
   6      -27.3370
   7      -27.3312
   8      -27.3312
   9      -27.3300
  10      -27.3299
  11      -27.3285
  12      -27.3284
  13      -27.3276
  14      -27.3276
  15      -27.2954
  16      -27.2433
  17      -27.2431
  18      -27.2424
  19      -27.2422
  20      -27.2408
  21      -27.2401
  22      -27.2359
  23      -27.2354
  24      -27.2092
  25      -27.2073
  26      -27.1906
  27      -27.1823
  28      -27.1819
  29      -27.1740
  30      -27.1715
  31      -27.1663
  32      -27.1618
  33      -27.1613
  34      -27.1348
  35      -27.1314
  36      -27.1303
  37      -27.1275
  38      -27.0839
  39      -27.0815
  40      -27.0545
  41      -27.0523
  42      -27.0326
  43      -27.0292
  44      -27.0216
  45      -27.0213
  46      -27.0160
  47      -27.0158
  48      -27.0047
  49      -26.9990
  50      -26.9845
  51      -26.9841
  52      -26.9839
  53      -26.9779
  54      -26.9777
  55      -26.9762
  56      -26.9659
  57      -26.9610
  58      -26.9516
  59      -26.9384
  60      -26.9336
  61      -26.9260
  62      -26.9254
  63      -26.9252
  64      -26.9246
  65      -26.9244
  66      -26.9215
  67      -26.9214
  68      -26.9081
  69      -26.9067
  70      -26.8852
  71      -26.8849
  72      -26.8848
  73      -26.8837
  74      -26.8817
  75      -26.8775
  76      -26.8674
  77      -26.8673
  78      -26.8667
  79      -26.8666
  80      -26.8647
  81      -26.8633
  82      -26.8632
  83      -26.8619
  84      -26.8618
  85      -26.8597
  86      -26.8597
  87      -26.8505
  88      -26.8504
  89      -26.8499
  90      -26.8492
  91      -26.8487
  92      -26.8486
  93      -26.8467
  94      -26.8420
  95      -26.8390
  96      -26.8389
  97      -26.8187
  98      -26.8157
  99      -26.8155
 100      -26.8024
 101      -26.8022
 102      -26.8021
 103      -26.8020
 104      -26.8001
 105      -26.7930
 106      -26.7860
 107      -26.7468
 108      -26.7390
 109        0.3444
 110        0.7516
 111        1.8711
 112        1.8740
 113        2.1321
 114        2.1323
 115        2.4372
 116        2.4373
 117        3.1636
 118        3.1637
 119        3.1665
 120        3.1666
 121        3.3929
 122        3.4036
 123        3.4040
 124        3.4119
 125        3.5558
 126        3.6770
 127        3.6774
 128        3.6796
 129        3.6868
 130        3.6871
 131        3.7858
 132        3.8037
 133        3.8160
 134        3.9080
 135        3.9084
 136        3.9140
 137        3.9144
 138        3.9270
 139        4.1253
 140        4.2336
 141        4.2486
 142        4.2553
 143        4.2647
 144        4.2654
 145        4.2908
 146        4.3327
 147        4.3543
 148        4.4410
 149        4.4456
 150        4.8433
 151        4.8479
 152        4.9010
 153        4.9194
 154        5.0301
 155        5.0494
 156        5.1596
 157        5.1608
 158        5.1674
 159        5.1775
 160        5.2726
 161        5.3229
 162        5.3240
 163        5.3317
 164        5.3327
 165        5.3745
 166        5.3757
 167        5.3831
 168        5.3843
 169        5.3849
 170        5.3852
 171        5.3853
 172        5.3862
 173        5.5420
 174        5.5647
 175        5.5663
 176        5.7232
 177        5.7251
 178        5.7702
 179        5.9383
 180        5.9386
 181        5.9581
 182        5.9604
 183        5.9607
 184        6.0421
 185        6.1260
 186        6.1555
 187        6.1558
 188        6.1636
 189        6.1639
 190        6.1648
 191        6.2056
 192        6.2085
 193        6.2089
 194        6.2383
 195        6.2388
 196        6.2419
 197        6.3788
 198        6.4356
 199        6.4359
 200        6.4584
 201        6.4625
 202        6.5126
 203        6.5128
 204        6.5327
 205        6.5780
 206        6.6076
 207        6.6520
 208        6.6949
 209        6.7057
 210        6.7183
 211        6.8096
 212        6.8866
 213        6.8868
 214        6.9455
 215        7.0783
 216        7.0847
 
 -0.1084202E-18  0.1428571E+00  0.0000000E+00  0.8163265E-02
   1      -27.4958
   2      -27.3418
   3      -27.3325
   4      -27.3324
   5      -27.3166
   6      -27.3161
   7      -27.3128
   8      -27.3127
   9      -27.3101
  10      -27.3100
  11      -27.3081
  12      -27.3080
  13      -27.3076
  14      -27.3076
  15      -27.2733
  16      -27.2731
  17      -27.2718
  18      -27.2707
  19      -27.2700
  20      -27.2698
  21      -27.2520
  22      -27.2519
  23      -27.2518
  24      -27.2365
  25      -27.2237
  26      -27.2209
  27      -27.2111
  28      -27.2085
  29      -27.1513
  30      -27.1508
  31      -27.1443
  32      -27.1437
  33      -27.1189
  34      -27.1138
  35      -27.1132
  36      -27.1100
  37      -27.1006
  38      -27.0969
  39      -27.0928
  40      -27.0916
  41      -27.0863
  42      -27.0860
  43      -27.0860
  44      -27.0855
  45      -27.0839
  46      -27.0835
  47      -27.0437
  48      -27.0425
  49      -27.0293
  50      -27.0247
  51      -27.0065
  52      -26.9648
  53      -26.9593
  54      -26.9582
  55      -26.9577
  56      -26.9553
  57      -26.9439
  58      -26.9345
  59      -26.9279
  60      -26.9278
  61      -26.9249
  62      -26.9240
  63      -26.9239
  64      -26.9199
  65      -26.9198
  66      -26.9189
  67      -26.9187
  68      -26.9168
  69      -26.9167
  70      -26.9071
  71      -26.9070
  72      -26.9062
  73      -26.8936
  74      -26.8894
  75      -26.8732
  76      -26.8730
  77      -26.8722
  78      -26.8720
  79      -26.8656
  80      -26.8654
  81      -26.8636
  82      -26.8613
  83      -26.8611
  84      -26.8610
  85      -26.8553
  86      -26.8553
  87      -26.8547
  88      -26.8547
  89      -26.8538
  90      -26.8536
  91      -26.8524
  92      -26.8482
  93      -26.8461
  94      -26.8459
  95      -26.8385
  96      -26.7939
  97      -26.7938
  98      -26.7932
  99      -26.7864
 100      -26.7841
 101      -26.7840
 102      -26.7838
 103      -26.7832
 104      -26.7768
 105      -26.7673
 106      -26.7661
 107      -26.7413
 108      -26.7294
 109       -0.1480
 110        1.7309
 111        1.7312
 112        1.7834
 113        2.1057
 114        2.1187
 115        2.6410
 116        2.6597
 117        2.8541
 118        3.0442
 119        3.0444
 120        3.1891
 121        3.1893
 122        3.2010
 123        3.2013
 124        3.3230
 125        3.3411
 126        3.3414
 127        3.3498
 128        3.3502
 129        3.3552
 130        3.3555
 131        4.0859
 132        4.1696
 133        4.1791
 134        4.2236
 135        4.2324
 136        4.2402
 137        4.2608
 138        4.2701
 139        4.3398
 140        4.3731
 141        4.3834
 142        4.4134
 143        4.4401
 144        4.4564
 145        4.4573
 146        4.4592
 147        4.4600
 148        4.5337
 149        4.5636
 150        4.6534
 151        4.6615
 152        4.6729
 153        4.6842
 154        4.8260
 155        5.0969
 156        5.0976
 157        5.1050
 158        5.1058
 159        5.2255
 160        5.2266
 161        5.2488
 162        5.2625
 163        5.2636
 164        5.2638
 165        5.2647
 166        5.2675
 167        5.2742
 168        5.2930
 169        5.3178
 170        5.3187
 171        5.3209
 172        5.3218
 173        5.3224
 174        5.3439
 175        5.3451
 176        5.3796
 177        5.7247
 178        5.7249
 179        5.7283
 180        5.7286
 181        6.0235
 182        6.0261
 183        6.1014
 184        6.1475
 185        6.2667
 186        6.3160
 187        6.3895
 188        6.3900
 189        6.3903
 190        6.3907
 191        6.4228
 192        6.4233
 193        6.4485
 194        6.4921
 195        6.4941
 196        6.5429
 197        6.5604
 198        6.5627
 199        6.5632
 200        6.5674
 201        6.5675
 202        6.5931
 203        6.6045
 204        6.6051
 205        6.6441
 206        6.6442
 207        6.7013
 208        6.7029
 209        6.7253
 210        6.7356
 211        6.7424
 212        6.7685
 213        6.7753
 214        6.7798
 215        6.7887
 216        6.7893
 
  0.1428571E+00  0.1428571E+00  0.0000000E+00  0.8163265E-02
   1      -27.4858
   2      -27.3609
   3      -27.3609
   4      -27.3462
   5      -27.3461
   6      -27.3460
   7      -27.3460
   8      -27.3194
   9      -27.3194
  10      -27.3116
  11      -27.3116
  12      -27.2899
  13      -27.2898
  14      -27.2896
  15      -27.2895
  16      -27.2858
  17      -27.2854
  18      -27.2550
  19      -27.2549
  20      -27.2396
  21      -27.2328
  22      -27.2326
  23      -27.2325
  24      -27.2324
  25      -27.2289
  26      -27.2287
  27      -27.2172
  28      -27.1778
  29      -27.1775
  30      -27.1482
  31      -27.1476
  32      -27.1314
  33      -27.1313
  34      -27.1300
  35      -27.1292
  36      -27.1218
  37      -27.1120
  38      -27.0853
  39      -27.0852
  40      -27.0836
  41      -27.0811
  42      -27.0810
  43      -27.0656
  44      -27.0653
  45      -27.0650
  46      -27.0647
  47      -27.0561
  48      -27.0050
  49      -26.9999
  50      -26.9869
  51      -26.9867
  52      -26.9704
  53      -26.9702
  54      -26.9568
  55      -26.9568
  56      -26.9395
  57      -26.9389
  58      -26.9388
  59      -26.9386
  60      -26.9385
  61      -26.9301
  62      -26.9293
  63      -26.9291
  64      -26.9290
  65      -26.9288
  66      -26.9230
  67      -26.9226
  68      -26.9108
  69      -26.9107
  70      -26.9037
  71      -26.9036
  72      -26.9034
  73      -26.9032
  74      -26.8808
  75      -26.8805
  76      -26.8739
  77      -26.8738
  78      -26.8737
  79      -26.8736
  80      -26.8715
  81      -26.8648
  82      -26.8646
  83      -26.8646
  84      -26.8644
  85      -26.8576
  86      -26.8576
  87      -26.8557
  88      -26.8557
  89      -26.8458
  90      -26.8401
  91      -26.8399
  92      -26.8399
  93      -26.8397
  94      -26.8369
  95      -26.8365
  96      -26.8069
  97      -26.8068
  98      -26.8048
  99      -26.8047
 100      -26.7939
 101      -26.7938
 102      -26.7882
 103      -26.7880
 104      -26.7720
 105      -26.7666
 106      -26.7664
 107      -26.7609
 108      -26.7320
 109       -0.0228
 110        1.5516
 111        1.5520
 112        1.8357
 113        1.8360
 114        2.5091
 115        2.5093
 116        2.9428
 117        2.9429
 118        2.9432
 119        2.9434
 120        3.1140
 121        3.1143
 122        3.3824
 123        3.3825
 124        3.3827
 125        3.3832
 126        3.4126
 127        3.4128
 128        3.4129
 129        3.4134
 130        3.4185
 131        4.0491
 132        4.0493
 133        4.1711
 134        4.2061
 135        4.2166
 136        4.2172
 137        4.2419
 138        4.2424
 139        4.2487
 140        4.2526
 141        4.2652
 142        4.2660
 143        4.2843
 144        4.2848
 145        4.3130
 146        4.3137
 147        4.4009
 148        4.5180
 149        4.5190
 150        4.5844
 151        4.6662
 152        4.8149
 153        4.9689
 154        4.9697
 155        5.1866
 156        5.1880
 157        5.2188
 158        5.2193
 159        5.2199
 160        5.2207
 161        5.2346
 162        5.2348
 163        5.2426
 164        5.2435
 165        5.3137
 166        5.3154
 167        5.3158
 168        5.3160
 169        5.3197
 170        5.3209
 171        5.3866
 172        5.3877
 173        5.3879
 174        5.3892
 175        5.4081
 176        5.4090
 177        5.7332
 178        5.7337
 179        5.7399
 180        5.7400
 181        5.9263
 182        5.9286
 183        6.1034
 184        6.1106
 185        6.3306
 186        6.3314
 187        6.3318
 188        6.3325
 189        6.3346
 190        6.3352
 191        6.3354
 192        6.3361
 193        6.3639
 194        6.3833
 195        6.3906
 196        6.3944
 197        6.3956
 198        6.4183
 199        6.4188
 200        6.4861
 201        6.5582
 202        6.5582
 203        6.6714
 204        6.6726
 205        6.6919
 206        6.6929
 207        6.7161
 208        6.7162
 209        6.7275
 210        6.7290
 211        6.8021
 212        6.8024
 213        6.8027
 214        6.8030
 215        6.8447
 216        6.8472
 
  0.2857143E+00  0.1428571E+00  0.0000000E+00  0.8163265E-02
   1      -27.4662
   2      -27.4022
   3      -27.3727
   4      -27.3683
   5      -27.3682
   6      -27.3516
   7      -27.3515
   8      -27.3350
   9      -27.3350
  10      -27.3149
  11      -27.3149
  12      -27.3049
  13      -27.3048
  14      -27.2941
  15      -27.2847
  16      -27.2743
  17      -27.2742
  18      -27.2638
  19      -27.2567
  20      -27.2502
  21      -27.2187
  22      -27.2184
  23      -27.2119
  24      -27.2028
  25      -27.1978
  26      -27.1976
  27      -27.1973
  28      -27.1967
  29      -27.1699
  30      -27.1570
  31      -27.1567
  32      -27.1564
  33      -27.1491
  34      -27.1426
  35      -27.1408
  36      -27.1365
  37      -27.1301
  38      -27.1135
  39      -27.0879
  40      -27.0546
  41      -27.0523
  42      -27.0339
  43      -27.0336
  44      -27.0317
  45      -27.0315
  46      -27.0261
  47      -27.0181
  48      -26.9907
  49      -26.9897
  50      -26.9812
  51      -26.9795
  52      -26.9758
  53      -26.9680
  54      -26.9678
  55      -26.9671
  56      -26.9538
  57      -26.9537
  58      -26.9480
  59      -26.9477
  60      -26.9467
  61      -26.9420
  62      -26.9419
  63      -26.9320
  64      -26.9320
  65      -26.9312
  66      -26.9074
  67      -26.9061
  68      -26.9045
  69      -26.9021
  70      -26.9019
  71      -26.8917
  72      -26.8898
  73      -26.8831
  74      -26.8830
  75      -26.8817
  76      -26.8786
  77      -26.8784
  78      -26.8755
  79      -26.8697
  80      -26.8696
  81      -26.8642
  82      -26.8641
  83      -26.8632
  84      -26.8617
  85      -26.8617
  86      -26.8591
  87      -26.8590
  88      -26.8576
  89      -26.8575
  90      -26.8376
  91      -26.8374
  92      -26.8352
  93      -26.8296
  94      -26.8289
  95      -26.8288
  96      -26.8254
  97      -26.8252
  98      -26.8201
  99      -26.8162
 100      -26.8137
 101      -26.7987
 102      -26.7975
 103      -26.7974
 104      -26.7954
 105      -26.7815
 106      -26.7750
 107      -26.7563
 108      -26.7384
 109        0.2230
 110        1.0328
 111        1.4117
 112        2.0365
 113        2.0367
 114        2.4179
 115        2.6335
 116        2.6336
 117        2.8846
 118        2.8847
 119        2.9511
 120        3.4152
 121        3.4195
 122        3.4196
 123        3.4373
 124        3.4377
 125        3.4683
 126        3.5359
 127        3.5362
 128        3.5925
 129        3.5928
 130        3.5976
 131        3.8231
 132        3.9150
 133        3.9553
 134        3.9558
 135        4.0319
 136        4.0541
 137        4.0544
 138        4.0710
 139        4.0748
 140        4.1595
 141        4.1858
 142        4.2193
 143        4.2462
 144        4.2577
 145        4.2910
 146        4.3835
 147        4.4090
 148        4.4816
 149        4.5446
 150        4.6039
 151        4.7450
 152        4.9499
 153        5.0322
 154        5.0526
 155        5.0782
 156        5.1568
 157        5.1881
 158        5.1892
 159        5.2409
 160        5.2533
 161        5.2545
 162        5.3174
 163        5.3380
 164        5.3389
 165        5.3550
 166        5.3557
 167        5.3678
 168        5.3687
 169        5.3770
 170        5.3782
 171        5.4017
 172        5.4256
 173        5.4267
 174        5.4912
 175        5.4926
 176        5.6128
 177        5.7798
 178        5.7817
 179        5.7881
 180        5.7889
 181        5.9485
 182        5.9487
 183        6.1121
 184        6.1169
 185        6.1252
 186        6.1300
 187        6.1304
 188        6.1352
 189        6.1687
 190        6.1691
 191        6.2477
 192        6.2761
 193        6.2765
 194        6.3239
 195        6.3313
 196        6.3736
 197        6.3783
 198        6.3786
 199        6.4927
 200        6.5217
 201        6.5218
 202        6.5320
 203        6.5881
 204        6.5886
 205        6.6106
 206        6.6245
 207        6.6610
 208        6.7093
 209        6.7505
 210        6.7914
 211        6.8263
 212        6.8408
 213        6.8411
 214        6.8853
 215        6.9454
 216        6.9864
 
  0.4285714E+00  0.1428571E+00  0.0000000E+00  0.8163265E-02
   1      -27.4379
   2      -27.4378
   3      -27.3767
   4      -27.3761
   5      -27.3760
   6      -27.3480
   7      -27.3479
   8      -27.3464
   9      -27.3464
  10      -27.3138
  11      -27.3137
  12      -27.3134
  13      -27.3133
  14      -27.2969
  15      -27.2951
  16      -27.2691
  17      -27.2690
  18      -27.2671
  19      -27.2627
  20      -27.2130
  21      -27.2127
  22      -27.2118
  23      -27.2103
  24      -27.2100
  25      -27.2046
  26      -27.1844
  27      -27.1775
  28      -27.1746
  29      -27.1730
  30      -27.1725