 vasp.4.6.28 25Jul05 complex 
 executed on             LinuxIFC date 2016.11.16  12:11:50
 running on    8 nodes
 distr:  one band on    1 nodes,    8 groups


--------------------------------------------------------------------------------------------------------


 INCAR:
 POTCAR:   PAW_PBE Ti_pv 07Sep2000                
 POTCAR:   PAW_PBE Ti_pv 07Sep2000                
   VRHFIN =Ti: d3 s1                                                            
   LEXCH  = PE                                                                  
   EATOM  =  1042.3781 eV,   76.6126 Ry                                         
                                                                                
   TITEL  = PAW_PBE Ti_pv 07Sep2000                                             
   LULTRA =        F    use ultrasoft PP ?                                      
   IUNSCR =        1    unscreen: 0-lin 1-nonlin 2-no                           
   RPACOR =    2.200    partial core radius                                     
   POMASS =   47.880; ZVAL   =   10.000    mass and valenz                      
   RCORE  =    2.500    outmost cutoff radius                                   
   RWIGS  =    2.500; RWIGS  =    1.323    wigner-seitz radius (au A)           
   ENMAX  =  222.338; ENMIN  =  166.753 eV                                      
   RCLOC  =    1.701    cutoff for local pot                                    
   LCOR   =        T    correct aug charges                                     
   LPAW   =        T    paw PP                                                  
   EAUG   =  482.848                                                            
   DEXC   =    -.008                                                            
   RMAX   =    3.092    core radius for proj-oper                               
   RAUG   =    1.300    factor for augmentation sphere                          
   RDEP   =    2.538    radius for radial grids                                 
   QCUT   =   -4.042; QGAM   =    8.085    optimization parameters              
                                                                                
   Description                                                                  
     l     E      TYP  RCUT    TYP  RCUT                                        
     1   .000     23  2.300                                                     
     1  -.100     23  2.300                                                     
     2   .000     23  2.500                                                     
     2   .000     23  2.500                                                     
     0   .000     23  2.500                                                     
     0  1.500     23  2.500                                                     
     3   .000      7   .000                                                     
  local pseudopotential read in
  partial core-charges read in
  atomic valenz-charges read in
  non local Contribution for L=           1  read in
    real space projection operators read in
  non local Contribution for L=           1  read in
    real space projection operators read in
  non local Contribution for L=           2  read in
    real space projection operators read in
  non local Contribution for L=           2  read in
    real space projection operators read in
  non local Contribution for L=           0  read in
    real space projection operators read in
  non local Contribution for L=           0  read in
    real space projection operators read in
    PAW grid and wavefunctions read in
 
   number of l-projection  operators is LMAX  =           6
   number of lm-projection operators is LMMAX =          18
 

 ----------------------------------------------------------------------------- 
|                                                                             |
|  ADVICE TO THIS USER RUNNING 'VASP/VAMP'   (HEAR YOUR MASTER'S VOICE ...):  |
|                                                                             |
|      You have a (more or less) 'large supercell' and for larger cells       |
|      it might be more efficient to use real space projection operators      |
|      So try LREAL= Auto  in the INCAR   file.                               |
|      Mind: If you want to do an extremely accurate calculations keep the    |
|      reciprocal projection scheme          (i.e. LREAL=.FALSE.)             |
|                                                                             |
 ----------------------------------------------------------------------------- 

 PAW_PBE Ti_pv 07Sep2000                :
 energy of atom  1       EATOM=-1042.3781
 kinetic energy error for atom=    0.0024 (will be added to EATOM!!)
 
 EXHCAR: internal setup
 exchange correlation table for  LEXCH =        8
   RHO(1)=    0.500       N(1)  =     2000
   RHO(2)=  100.500       N(2)  =     4000
 
 POSCAR: Ti                                      
  positions in direct lattice
  No initial velocities read in
 


--------------------------------------------------------------------------------------------------------


 ion  position               nearest neighbor table
   1  0.110  0.223  0.124-  30 2.85  31 2.85  21 2.86  28 2.86  22 2.87  19 2.87   3 2.93   4 2.94
                             7 2.94   2 2.95   9 2.95   5 2.96
   2  0.444  0.223  0.125-  19 2.86  28 2.86  23 2.86  32 2.86  29 2.87  20 2.87   3 2.94   8 2.94
                             5 2.94   1 2.95   7 2.95   6 2.95
   3  0.777  0.223  0.125-  20 2.86  29 2.86  24 2.86  33 2.86  30 2.87  21 2.87   1 2.93   2 2.94
                             9 2.94   6 2.94   8 2.95   4 2.95
   4  0.111  0.556  0.125-  24 2.86  33 2.86  25 2.86  34 2.86  22 2.87  31 2.87   1 2.94   6 2.94
                             5 2.94   7 2.94   3 2.95   8 2.95
   5  0.444  0.556  0.125-  22 2.86  31 2.86  26 2.86  35 2.86  32 2.87  23 2.87   4 2.94   6 2.94
                             2 2.94   8 2.94   9 2.95   1 2.96
   6  0.777  0.556  0.125-  23 2.86  32 2.86  27 2.86  36 2.86  33 2.87  24 2.87   4 2.94   5 2.94
                             3 2.94   9 2.94   7 2.95   2 2.95
   7  0.111  0.889  0.125-  27 2.86  36 2.86  28 2.86  19 2.86  34 2.87  25 2.87   9 2.94   8 2.94
                             4 2.94   1 2.94   2 2.95   6 2.95
   8  0.444  0.889  0.125-  25 2.86  34 2.86  29 2.86  20 2.86  26 2.87  35 2.87   7 2.94   9 2.94
                             2 2.94   5 2.94   3 2.95   4 2.95
   9  0.777  0.889  0.125-  26 2.86  35 2.86  30 2.86  21 2.86  27 2.87  36 2.87   7 2.94   8 2.94
                             3 2.94   6 2.94   1 2.95   5 2.95
  10  0.111  0.223  0.625-  21 2.86  30 2.86  22 2.86  31 2.86  19 2.87  28 2.87  12 2.94  11 2.94
                            16 2.94  13 2.94  18 2.95  14 2.95
  11  0.444  0.223  0.625-  19 2.86  28 2.86  23 2.86  32 2.86  29 2.87  20 2.87  10 2.94  12 2.94
                            17 2.94  14 2.94  16 2.95  15 2.95
  12  0.777  0.223  0.625-  20 2.86  29 2.86  24 2.86  33 2.86  30 2.87  21 2.87  10 2.94  11 2.94
                            18 2.94  15 2.94  17 2.95  13 2.95
  13  0.111  0.556  0.625-  24 2.86  33 2.86  25 2.86  34 2.86  22 2.87  31 2.87  15 2.94  14 2.94
                            10 2.94  16 2.94  12 2.95  17 2.95
  14  0.444  0.556  0.625-  22 2.86  31 2.86  26 2.86  35 2.86  32 2.87  23 2.87  13 2.94  15 2.94
                            11 2.94  17 2.94  10 2.95  18 2.95
  15  0.777  0.556  0.625-  23 2.86  32 2.86  27 2.86  36 2.86  33 2.87  24 2.87  13 2.94  14 2.94
                            12 2.94  18 2.94  16 2.95  11 2.95
  16  0.111  0.889  0.625-  27 2.86  36 2.86  28 2.86  19 2.86  34 2.87  25 2.87  18 2.94  17 2.94
                            10 2.94  13 2.94  11 2.95  15 2.95
  17  0.444  0.889  0.625-  25 2.86  34 2.86  29 2.86  20 2.86  26 2.87  35 2.87  16 2.94  18 2.94
                            11 2.94  14 2.94  12 2.95  13 2.95
  18  0.777  0.889  0.625-  26 2.86  35 2.86  30 2.86  21 2.86  27 2.87  36 2.87  16 2.94  17 2.94
                            12 2.94  15 2.94  10 2.95  14 2.95
  19  0.223  0.111  0.375-   2 2.86  11 2.86   7 2.86  16 2.86  10 2.87   1 2.87  21 2.94  20 2.94
                            25 2.94  22 2.94  27 2.95  23 2.95
  20  0.556  0.111  0.375-   3 2.86  12 2.86   8 2.86  17 2.86   2 2.87  11 2.87  19 2.94  21 2.94
                            26 2.94  23 2.94  25 2.95  24 2.95
  21  0.889  0.111  0.375-  10 2.86   9 2.86  18 2.86   1 2.86  12 2.87   3 2.87  19 2.94  20 2.94
                            27 2.94  24 2.94  26 2.95  22 2.95
  22  0.223  0.444  0.375-   5 2.86  14 2.86  10 2.86  13 2.87   4 2.87   1 2.87  24 2.94  23 2.94
                            19 2.94  25 2.94  21 2.95  26 2.95
  23  0.556  0.444  0.375-   6 2.86  15 2.86  11 2.86   2 2.86  14 2.87   5 2.87  22 2.94  24 2.94
                            20 2.94  26 2.94  19 2.95  27 2.95
  24  0.889  0.444  0.375-   4 2.86  13 2.86  12 2.86   3 2.86   6 2.87  15 2.87  22 2.94  23 2.94
                            21 2.94  27 2.94  25 2.95  20 2.95
  25  0.223  0.777  0.375-   8 2.86  17 2.86  13 2.86   4 2.86  16 2.87   7 2.87  27 2.94  26 2.94
                            19 2.94  22 2.94  20 2.95  24 2.95
  26  0.556  0.777  0.375-   9 2.86  18 2.86  14 2.86   5 2.86  17 2.87   8 2.87  25 2.94  27 2.94
                            20 2.94  23 2.94  21 2.95  22 2.95
  27  0.889  0.777  0.375-   7 2.86  16 2.86  15 2.86   6 2.86   9 2.87  18 2.87  25 2.94  26 2.94
                            21 2.94  24 2.94  19 2.95  23 2.95
  28  0.223  0.111  0.875-   2 2.86  11 2.86   7 2.86  16 2.86   1 2.86  10 2.87  30 2.94  29 2.94
                            34 2.94  31 2.94  36 2.95  32 2.95
  29  0.556  0.111  0.875-   3 2.86  12 2.86   8 2.86  17 2.86   2 2.87  11 2.87  28 2.94  30 2.94
                            35 2.94  32 2.94  34 2.95  33 2.95
  30  0.889  0.111  0.875-   1 2.85  10 2.86   9 2.86  18 2.86  12 2.87   3 2.87  28 2.94  29 2.94
                            36 2.94  33 2.94  35 2.95  31 2.95
  31  0.223  0.444  0.875-   1 2.85   5 2.86  14 2.86  10 2.86  13 2.87   4 2.87  33 2.94  32 2.94
                            28 2.94  34 2.94  30 2.95  35 2.95
  32  0.556  0.444  0.875-   6 2.86  15 2.86  11 2.86   2 2.86  14 2.87   5 2.87  31 2.94  33 2.94
                            29 2.94  35 2.94  28 2.95  36 2.95
  33  0.889  0.444  0.875-   4 2.86  13 2.86  12 2.86   3 2.86   6 2.87  15 2.87  31 2.94  32 2.94
                            30 2.94  36 2.94  34 2.95  29 2.95
  34  0.223  0.777  0.875-   8 2.86  17 2.86  13 2.86   4 2.86  16 2.87   7 2.87  36 2.94  35 2.94
                            28 2.94  31 2.94  29 2.95  33 2.95
  35  0.556  0.777  0.875-   9 2.86  18 2.86  14 2.86   5 2.86  17 2.87   8 2.87  34 2.94  36 2.94
                            29 2.94  32 2.94  30 2.95  31 2.95
  36  0.889  0.777  0.875-   7 2.86  16 2.86  15 2.86   6 2.86   9 2.87  18 2.87  34 2.94  35 2.94
                            30 2.94  33 2.94  28 2.95  32 2.95
 
  LATTYP: Found a base centered orthorhombic cell.
 ALAT       =     8.8635622795
 B/A-ratio  =     1.7208744689
 C/A-ratio  =     1.0388006735
  
  Lattice vectors:
  
 A1 = (   8.8206670999,   0.0247654402,   0.0000000000)
 A2 = (  -4.3888858705,   7.6513046101,   0.0000000000)
 A3 = (   0.0000000000,   0.0000000000,   9.2074744653)
 Subroutine PRICEL returns:
 Original cell was already a primitive cell.
 

Analysis of symmetry for initial positions (statically):

 Routine SETGRP: Setting up the symmetry group for a 
 base centered orthorhombic supercell.


 Subroutine GETGRP returns: Found  1 space group operations
 (whereof  1 operations were pure point group operations)
 out of a pool of  8 trial point group operations.


The static configuration has the point symmetry C_1 .

Analysis of symmetry for dynamics (positions and initial velocities):

 Subroutine DYNSYM returns: Found  1 space group operations
 (whereof  1 operations were pure point group operations)
 out of a pool of  1 trial space group operations
 (whereof  1 operations were pure point group operations)
 and found also     1 'primitive' translations


The dynamic configuration has the point symmetry C_1 .
 
 
 KPOINTS: Automatic mesh                          

Automatic generation of k-mesh.
 generate k-points for:   7   7   5
 
 Subroutine IBZKPT returns following result:
 ===========================================
 
 Found    123 irreducible k-points:
 
 Following reciprocal coordinates:
            Coordinates               Weight
  0.000000  0.000000  0.000000      1.000000
  0.142857 -0.000000  0.000000      2.000000
  0.285714 -0.000000  0.000000      2.000000
  0.428571  0.000000  0.000000      2.000000
 -0.000000  0.142857  0.000000      2.000000
  0.142857  0.142857  0.000000      2.000000
  0.285714  0.142857  0.000000      2.000000
  0.428571  0.142857  0.000000      2.000000
 -0.428571  0.142857  0.000000      2.000000
 -0.285714  0.142857  0.000000      2.000000
 -0.142857  0.142857  0.000000      2.000000
 -0.000000  0.285714  0.000000      2.000000
  0.142857  0.285714  0.000000      2.000000
  0.285714  0.285714  0.000000      2.000000
  0.428571  0.285714  0.000000      2.000000
 -0.428571  0.285714  0.000000      2.000000
 -0.285714  0.285714  0.000000      2.000000
 -0.142857  0.285714  0.000000      2.000000
  0.000000  0.428571  0.000000      2.000000
  0.142857  0.428571  0.000000      2.000000
  0.285714  0.428571  0.000000      2.000000
  0.428571  0.428571  0.000000      2.000000
 -0.428571  0.428571  0.000000      2.000000
 -0.285714  0.428571  0.000000      2.000000
 -0.142857  0.428571  0.000000      2.000000
  0.000000  0.000000  0.200000      2.000000
  0.142857 -0.000000  0.200000      2.000000
  0.285714 -0.000000  0.200000      2.000000
  0.428571  0.000000  0.200000      2.000000
 -0.428571  0.000000  0.200000      2.000000
 -0.285714  0.000000  0.200000      2.000000
 -0.142857  0.000000  0.200000      2.000000
 -0.000000  0.142857  0.200000      2.000000
  0.142857  0.142857  0.200000      2.000000
  0.285714  0.142857  0.200000      2.000000
  0.428571  0.142857  0.200000      2.000000
 -0.428571  0.142857  0.200000      2.000000
 -0.285714  0.142857  0.200000      2.000000
 -0.142857  0.142857  0.200000      2.000000
 -0.000000  0.285714  0.200000      2.000000
  0.142857  0.285714  0.200000      2.000000
  0.285714  0.285714  0.200000      2.000000
  0.428571  0.285714  0.200000      2.000000
 -0.428571  0.285714  0.200000      2.000000
 -0.285714  0.285714  0.200000      2.000000
 -0.142857  0.285714  0.200000      2.000000
  0.000000  0.428571  0.200000      2.000000
  0.142857  0.428571  0.200000      2.000000
  0.285714  0.428571  0.200000      2.000000
  0.428571  0.428571  0.200000      2.000000
 -0.428571  0.428571  0.200000      2.000000
 -0.285714  0.428571  0.200000      2.000000
 -0.142857  0.428571  0.200000      2.000000
  0.000000 -0.428571  0.200000      2.000000
  0.142857 -0.428571  0.200000      2.000000
  0.285714 -0.428571  0.200000      2.000000
  0.428571 -0.428571  0.200000      2.000000
 -0.428571 -0.428571  0.200000      2.000000
 -0.285714 -0.428571  0.200000      2.000000
 -0.142857 -0.428571  0.200000      2.000000
  0.000000 -0.285714  0.200000      2.000000
  0.142857 -0.285714  0.200000      2.000000
  0.285714 -0.285714  0.200000      2.000000
  0.428571 -0.285714  0.200000      2.000000
 -0.428571 -0.285714  0.200000      2.000000
 -0.285714 -0.285714  0.200000      2.000000
 -0.142857 -0.285714  0.200000      2.000000
  0.000000 -0.142857  0.200000      2.000000
  0.142857 -0.142857  0.200000      2.000000
  0.285714 -0.142857  0.200000      2.000000
  0.428571 -0.142857  0.200000      2.000000
 -0.428571 -0.142857  0.200000      2.000000
 -0.285714 -0.142857  0.200000      2.000000
 -0.142857 -0.142857  0.200000      2.000000
  0.000000  0.000000  0.400000      2.000000
  0.142857 -0.000000  0.400000      2.000000
  0.285714 -0.000000  0.400000      2.000000
  0.428571  0.000000  0.400000      2.000000
 -0.428571  0.000000  0.400000      2.000000
 -0.285714  0.000000  0.400000      2.000000
 -0.142857  0.000000  0.400000      2.000000
 -0.000000  0.142857  0.400000      2.000000
  0.142857  0.142857  0.400000      2.000000
  0.285714  0.142857  0.400000      2.000000
  0.428571  0.142857  0.400000      2.000000
 -0.428571  0.142857  0.400000      2.000000
 -0.285714  0.142857  0.400000      2.000000
 -0.142857  0.142857  0.400000      2.000000
 -0.000000  0.285714  0.400000      2.000000
  0.142857  0.285714  0.400000      2.000000
  0.285714  0.285714  0.400000      2.000000
  0.428571  0.285714  0.400000      2.000000
 -0.428571  0.285714  0.400000      2.000000
 -0.285714  0.285714  0.400000      2.000000
 -0.142857  0.285714  0.400000      2.000000
  0.000000  0.428571  0.400000      2.000000
  0.142857  0.428571  0.400000      2.000000
  0.285714  0.428571  0.400000      2.000000
  0.428571  0.428571  0.400000      2.000000
 -0.428571  0.428571  0.400000      2.000000
 -0.285714  0.428571  0.400000      2.000000
 -0.142857  0.428571  0.400000      2.000000
  0.000000 -0.428571  0.400000      2.000000
  0.142857 -0.428571  0.400000      2.000000
  0.285714 -0.428571  0.400000      2.000000
  0.428571 -0.428571  0.400000      2.000000
 -0.428571 -0.428571  0.400000      2.000000
 -0.285714 -0.428571  0.400000      2.000000
 -0.142857 -0.428571  0.400000      2.000000
  0.000000 -0.285714  0.400000      2.000000
  0.142857 -0.285714  0.400000      2.000000
  0.285714 -0.285714  0.400000      2.000000
  0.428571 -0.285714  0.400000      2.000000
 -0.428571 -0.285714  0.400000      2.000000
 -0.285714 -0.285714  0.400000      2.000000
 -0.142857 -0.285714  0.400000      2.000000
  0.000000 -0.142857  0.400000      2.000000
  0.142857 -0.142857  0.400000      2.000000
  0.285714 -0.142857  0.400000      2.000000
  0.428571 -0.142857  0.400000      2.000000
 -0.428571 -0.142857  0.400000      2.000000
 -0.285714 -0.142857  0.400000      2.000000
 -0.142857 -0.142857  0.400000      2.000000
 
 Following cartesian coordinates:
            Coordinates               Weight
  0.000000  0.000000  0.000000      1.000000
  0.016170  0.009275  0.000000      2.000000
  0.032339  0.018550  0.000000      2.000000
  0.048509  0.027825  0.000000      2.000000
 -0.000052  0.018641  0.000000      2.000000
  0.016117  0.027916  0.000000      2.000000
  0.032287  0.037191  0.000000      2.000000
  0.048457  0.046466  0.000000      2.000000
 -0.048561 -0.009184  0.000000      2.000000
 -0.032392  0.000091  0.000000      2.000000
 -0.016222  0.009366  0.000000      2.000000
 -0.000105  0.037282  0.000000      2.000000
  0.016065  0.046557  0.000000      2.000000
  0.032235  0.055832  0.000000      2.000000
  0.048404  0.065107  0.000000      2.000000
 -0.048614  0.009456  0.000000      2.000000
 -0.032444  0.018732  0.000000      2.000000
 -0.016274  0.028007  0.000000      2.000000
 -0.000157  0.055923  0.000000      2.000000
  0.016013  0.065198  0.000000      2.000000
  0.032182  0.074473  0.000000      2.000000
  0.048352  0.083748  0.000000      2.000000
 -0.048666  0.028097  0.000000      2.000000
 -0.032496  0.037373  0.000000      2.000000
 -0.016327  0.046648  0.000000      2.000000
  0.000000  0.000000  0.021721      2.000000
  0.016170  0.009275  0.021721      2.000000
  0.032339  0.018550  0.021721      2.000000
  0.048509  0.027825  0.021721      2.000000
 -0.048509 -0.027825  0.021721      2.000000
 -0.032339 -0.018550  0.021721      2.000000
 -0.016170 -0.009275  0.021721      2.000000
 -0.000052  0.018641  0.021721      2.000000
  0.016117  0.027916  0.021721      2.000000
  0.032287  0.037191  0.021721      2.000000
  0.048457  0.046466  0.021721      2.000000
 -0.048561 -0.009184  0.021721      2.000000
 -0.032392  0.000091  0.021721      2.000000
 -0.016222  0.009366  0.021721      2.000000
 -0.000105  0.037282  0.021721      2.000000
  0.016065  0.046557  0.021721      2.000000
  0.032235  0.055832  0.021721      2.000000
  0.048404  0.065107  0.021721      2.000000
 -0.048614  0.009456  0.021721      2.000000
 -0.032444  0.018732  0.021721      2.000000
 -0.016274  0.028007  0.021721      2.000000
 -0.000157  0.055923  0.021721      2.000000
  0.016013  0.065198  0.021721      2.000000
  0.032182  0.074473  0.021721      2.000000
  0.048352  0.083748  0.021721      2.000000
 -0.048666  0.028097  0.021721      2.000000
 -0.032496  0.037373  0.021721      2.000000
 -0.016327  0.046648  0.021721      2.000000
  0.000157 -0.055923  0.021721      2.000000
  0.016327 -0.046648  0.021721      2.000000
  0.032496 -0.037373  0.021721      2.000000
  0.048666 -0.028097  0.021721      2.000000
 -0.048352 -0.083748  0.021721      2.000000
 -0.032182 -0.074473  0.021721      2.000000
 -0.016013 -0.065198  0.021721      2.000000
  0.000105 -0.037282  0.021721      2.000000
  0.016274 -0.028007  0.021721      2.000000
  0.032444 -0.018732  0.021721      2.000000
  0.048614 -0.009456  0.021721      2.000000
 -0.048404 -0.065107  0.021721      2.000000
 -0.032235 -0.055832  0.021721      2.000000
 -0.016065 -0.046557  0.021721      2.000000
  0.000052 -0.018641  0.021721      2.000000
  0.016222 -0.009366  0.021721      2.000000
  0.032392 -0.000091  0.021721      2.000000
  0.048561  0.009184  0.021721      2.000000
 -0.048457 -0.046466  0.021721      2.000000
 -0.032287 -0.037191  0.021721      2.000000
 -0.016117 -0.027916  0.021721      2.000000
  0.000000  0.000000  0.043443      2.000000
  0.016170  0.009275  0.043443      2.000000
  0.032339  0.018550  0.043443      2.000000
  0.048509  0.027825  0.043443      2.000000
 -0.048509 -0.027825  0.043443      2.000000
 -0.032339 -0.018550  0.043443      2.000000
 -0.016170 -0.009275  0.043443      2.000000
 -0.000052  0.018641  0.043443      2.000000
  0.016117  0.027916  0.043443      2.000000
  0.032287  0.037191  0.043443      2.000000
  0.048457  0.046466  0.043443      2.000000
 -0.048561 -0.009184  0.043443      2.000000
 -0.032392  0.000091  0.043443      2.000000
 -0.016222  0.009366  0.043443      2.000000
 -0.000105  0.037282  0.043443      2.000000
  0.016065  0.046557  0.043443      2.000000
  0.032235  0.055832  0.043443      2.000000
  0.048404  0.065107  0.043443      2.000000
 -0.048614  0.009456  0.043443      2.000000
 -0.032444  0.018732  0.043443      2.000000
 -0.016274  0.028007  0.043443      2.000000
 -0.000157  0.055923  0.043443      2.000000
  0.016013  0.065198  0.043443      2.000000
  0.032182  0.074473  0.043443      2.000000
  0.048352  0.083748  0.043443      2.000000
 -0.048666  0.028097  0.043443      2.000000
 -0.032496  0.037373  0.043443      2.000000
 -0.016327  0.046648  0.043443      2.000000
  0.000157 -0.055923  0.043443      2.000000
  0.016327 -0.046648  0.043443      2.000000
  0.032496 -0.037373  0.043443      2.000000
  0.048666 -0.028097  0.043443      2.000000
 -0.048352 -0.083748  0.043443      2.000000
 -0.032182 -0.074473  0.043443      2.000000
 -0.016013 -0.065198  0.043443      2.000000
  0.000105 -0.037282  0.043443      2.000000
  0.016274 -0.028007  0.043443      2.000000
  0.032444 -0.018732  0.043443      2.000000
  0.048614 -0.009456  0.043443      2.000000
 -0.048404 -0.065107  0.043443      2.000000
 -0.032235 -0.055832  0.043443      2.000000
 -0.016065 -0.046557  0.043443      2.000000
  0.000052 -0.018641  0.043443      2.000000
  0.016222 -0.009366  0.043443      2.000000
  0.032392 -0.000091  0.043443      2.000000
  0.048561  0.009184  0.043443      2.000000
 -0.048457 -0.046466  0.043443      2.000000
 -0.032287 -0.037191  0.043443      2.000000
 -0.016117 -0.027916  0.043443      2.000000
 


--------------------------------------------------------------------------------------------------------




 Dimension of arrays:
   k-Points           NKPTS =    123   number of bands    NBANDS=    216
   number of dos      NEDOS =    301   number of ions     NIONS =     36
   non local maximal  LDIM  =      6   non local SUM 2l+1 LMDIM =     18
   total plane-waves  NPLWV = 286720
   max r-space proj   IRMAX =      1   max aug-charges    IRDMAX=  18082
   dimension x,y,z NGX =    64 NGY =   64 NGZ =   70
   dimension x,y,z NGXF=   128 NGYF=  128 NGZF=  140
   support grid    NGXF=   128 NGYF=  128 NGZF=  140
   ions per type =              36
 NGX,Y,Z   is equivalent  to a cutoff of  12.06, 12.06, 12.64 a.u.
 NGXF,Y,Z  is equivalent  to a cutoff of  24.12, 24.12, 25.28 a.u.


 I would recommend the setting:
   dimension x,y,z NGX =    64 NGY =   64 NGZ =   67
 SYSTEM =  unknown system                          
 POSCAR =  Ti                                      

 Startparameter for this run:
   NWRITE =      2    write-flag & timer
   PREC   = accura    medium, high low
   ISTART =      0    job   : 0-new  1-cont  2-samecut
   ICHARG =      2    charge: 1-file 2-atom 10-const
   ISPIN  =      1    spin polarized calculation?
   LNONCOLLINEAR =      F non collinear calculations
   LSORBIT =      F    spin-orbit coupling
   INIWAV =      1    electr: 0-lowe 1-rand  2-diag
   LASPH  =      F    aspherical Exc in radial PAW
   METAGGA=      F    non-selfconsistent MetaGGA calc.

 Electronic Relaxation 1
   ENCUT  =  500.0 eV  36.75 Ry    6.06 a.u.  16.08 16.08 16.79*2*pi/ulx,y,z
   ENINI  =  500.0     initial cutoff
   ENAUG  =  482.8 eV  augmentation charge cutoff
   NELM   =     60;   NELMIN=  2; NELMDL=  0     # of ELM steps 
   EDIFF  = 0.1E-07   stopping-criterion for ELM
   LREAL  =      F    real-space projection
   LCOMPAT=      F    compatible to vasp.4.4
   LREAL_COMPAT= F    compatible to vasp.4.5.1-3
   GGA_COMPAT  = T    GGA compatible to vasp.4.4-vasp.4.6
   LMAXPAW     = -100 max onsite density
   LMAXMIX     =    2 max onsite mixed and CHGCAR
   VOSKOWN=      0    Vosko Wilk Nusair interpolation
   ROPT   =    0.00000
 Ionic relaxation
   EDIFFG = 0.1E-06   stopping-criterion for IOM
   NSW    =      0    number of steps for IOM
   NBLOCK =      1;   KBLOCK =      1    inner block; outer block 
   IBRION =     -1    ionic relax: 0-MD 1-quasi-New 2-CG
   NFREE  =      0    steps in history (QN), initial steepest desc. (CG)
   ISIF   =      2    stress and relaxation
   IWAVPR =     10    prediction:  0-non 1-charg 2-wave 3-comb
   ISYM   =      2    0-nonsym 1-usesym 2-fastsym
   LCORR  =      T    Harris-Foulkes like correction to forces

   POTIM  =   0.50    time-step for ionic-motion
   TEIN   =    0.0    initial temperature
   TEBEG  =    0.0;   TEEND  =   0.0 temperature during run
   SMASS  =  -3.00    Nose mass-parameter (am)
   estimated Nose-frequenzy (Omega)   =  0.10E-29 period in steps =****** mass=  -0.178E-26a.u.
   NPACO  =    256;   APACO  = 16.0  distance and # of slots for P.C.
   PSTRESS=    0.0 pullay stress

  Mass of Ions in am
   POMASS =  47.88
  Ionic Valenz
   ZVAL   =  10.00
  Atomic Wigner-Seitz radii
   RWIGS  =  -1.00
   NELECT =     360.0000    total number of electrons
   NUPDOWN=      -1.0000    fix difference up-down

 DOS related values:
   EMIN   =  10.00;   EMAX   =-10.00  energy-range for DOS
   ISMEAR =     0;   SIGMA  =   0.01  broadening in eV -4-tet -1-fermi 0-gaus

 Electronic relaxation 2 (details)
   IALGO  =     38    algorithm
   LDIAG  =      T    sub-space diagonalisation
   IMIX   =      4    mixing-type and parameters
     AMIX     =   0.40;   BMIX     =  1.00
     AMIX_MAG =   1.60;   BMIX_MAG =  1.00
     AMIN     =   0.10
     WC   =   100.;   INIMIX=   1;  MIXPRE=   1

 Intra band minimization:
   WEIMIN = 0.0000     energy-eigenvalue tresh-hold
   EBREAK =  0.12E-10  absolut break condition
   DEPER  =   0.30     relativ break condition  

   TIME   =   0.10     timestep for ELM

  volume/ion in A,a.u.               =      17.29       116.67
  Fermi-wavevector in a.u.,eV,Ry     =   1.364008 25.313879  1.860518

 Second variation
   LSECVAR=     F    do a second variation
 
 Write flags
   LWAVE  =      F    write WAVECAR
   LCHARG =      F    write CHGCAR
   LVTOT  =      F    write LOCPOT, local potential
   LELF   =      F    write electronic localiz. function (ELF)
   LORBIT =      0    0 simple, 1 ext, 2 COOP (PROOUT)


 Dipole corrections
   IDIPOL =      0    1-x, 2-y, 3-z
   LDIPOL =      F    correct potential



--------------------------------------------------------------------------------------------------------


 Static calculation
 charge density will be updated during run
 non-spin polarized calculation
 Variant of blocked Davidson
 Davidson routine will perform the subspace rotation
 performe sub-space diagonalisation
    after iterative eigenvector-optimisation
 modified Broyden-mixing scheme, WC =      100.0
 initial mixing is a Kerker type mixing with AMIX =  0.4000 and BMIX =      1.0000
 Hartree-type preconditioning will be used
 using additional bands           36
 reciprocal scheme for non local part
 use partial core corrections
 calculate Harris-corrections to forces 
   (improved forces if not selfconsistent)
 use gradient corrections 
 use of overlap-Matrix (Vanderbilt PP)
 Gauss-broadening in eV      SIGMA  =   0.01


--------------------------------------------------------------------------------------------------------


  energy-cutoff  :      500.00
  volume of cell :      622.41
      direct lattice vectors                 reciprocal lattice vectors
     8.820667100  0.024765440  0.000000000     0.113187820  0.064925977  0.000000000
    -4.388885871  7.651304610  0.000000000    -0.000366362  0.130486516  0.000000000
     0.000000000  0.000000000  9.207474465     0.000000000  0.000000000  0.108607415

  length of vectors
     8.820701866  8.820701867  9.207474465     0.130487030  0.130487030  0.108607415


 
 k-points in units of 2pi/SCALE and weight: Automatic mesh                          
   0.00000000  0.00000000  0.00000000       0.004
   0.01616969  0.00927514  0.00000000       0.008
   0.03233938  0.01855028  0.00000000       0.008
   0.04850907  0.02782542  0.00000000       0.008
  -0.00005234  0.01864093  0.00000000       0.008
   0.01611735  0.02791607  0.00000000       0.008
   0.03228704  0.03719121  0.00000000       0.008
   0.04845673  0.04646635  0.00000000       0.008
  -0.04856140 -0.00918449  0.00000000       0.008
  -0.03239171  0.00009065  0.00000000       0.008
  -0.01622203  0.00936579  0.00000000       0.008
  -0.00010467  0.03728186  0.00000000       0.008
   0.01606501  0.04655700  0.00000000       0.008
   0.03223470  0.05583214  0.00000000       0.008
   0.04840439  0.06510728  0.00000000       0.008
  -0.04861374  0.00945644  0.00000000       0.008
  -0.03244405  0.01873158  0.00000000       0.008
  -0.01627436  0.02800672  0.00000000       0.008
  -0.00015701  0.05592279  0.00000000       0.008
   0.01601268  0.06519793  0.00000000       0.008
   0.03218236  0.07447307  0.00000000       0.008
   0.04835205  0.08374821  0.00000000       0.008
  -0.04866608  0.02809737  0.00000000       0.008
  -0.03249639  0.03737251  0.00000000       0.008
  -0.01632670  0.04664765  0.00000000       0.008
   0.00000000  0.00000000  0.02172148       0.008
   0.01616969  0.00927514  0.02172148       0.008
   0.03233938  0.01855028  0.02172148       0.008
   0.04850907  0.02782542  0.02172148       0.008
  -0.04850907 -0.02782542  0.02172148       0.008
  -0.03233938 -0.01855028  0.02172148       0.008
  -0.01616969 -0.00927514  0.02172148       0.008
  -0.00005234  0.01864093  0.02172148       0.008
   0.01611735  0.02791607  0.02172148       0.008
   0.03228704  0.03719121  0.02172148       0.008
   0.04845673  0.04646635  0.02172148       0.008
  -0.04856140 -0.00918449  0.02172148       0.008
  -0.03239171  0.00009065  0.02172148       0.008
  -0.01622203  0.00936579  0.02172148       0.008
  -0.00010467  0.03728186  0.02172148       0.008
   0.01606501  0.04655700  0.02172148       0.008
   0.03223470  0.05583214  0.02172148       0.008
   0.04840439  0.06510728  0.02172148       0.008
  -0.04861374  0.00945644  0.02172148       0.008
  -0.03244405  0.01873158  0.02172148       0.008
  -0.01627436  0.02800672  0.02172148       0.008
  -0.00015701  0.05592279  0.02172148       0.008
   0.01601268  0.06519793  0.02172148       0.008
   0.03218236  0.07447307  0.02172148       0.008
   0.04835205  0.08374821  0.02172148       0.008
  -0.04866608  0.02809737  0.02172148       0.008
  -0.03249639  0.03737251  0.02172148       0.008
  -0.01632670  0.04664765  0.02172148       0.008
   0.00015701 -0.05592279  0.02172148       0.008
   0.01632670 -0.04664765  0.02172148       0.008
   0.03249639 -0.03737251  0.02172148       0.008
   0.04866608 -0.02809737  0.02172148       0.008
  -0.04835205 -0.08374821  0.02172148       0.008
  -0.03218236 -0.07447307  0.02172148       0.008
  -0.01601268 -0.06519793  0.02172148       0.008
   0.00010467 -0.03728186  0.02172148       0.008
   0.01627436 -0.02800672  0.02172148       0.008
   0.03244405 -0.01873158  0.02172148       0.008
   0.04861374 -0.00945644  0.02172148       0.008
  -0.04840439 -0.06510728  0.02172148       0.008
  -0.03223470 -0.05583214  0.02172148       0.008
  -0.01606501 -0.04655700  0.02172148       0.008
   0.00005234 -0.01864093  0.02172148       0.008
   0.01622203 -0.00936579  0.02172148       0.008
   0.03239171 -0.00009065  0.02172148       0.008
   0.04856140  0.00918449  0.02172148       0.008
  -0.04845673 -0.04646635  0.02172148       0.008
  -0.03228704 -0.03719121  0.02172148       0.008
  -0.01611735 -0.02791607  0.02172148       0.008
   0.00000000  0.00000000  0.04344297       0.008
   0.01616969  0.00927514  0.04344297       0.008
   0.03233938  0.01855028  0.04344297       0.008
   0.04850907  0.02782542  0.04344297       0.008
  -0.04850907 -0.02782542  0.04344297       0.008
  -0.03233938 -0.01855028  0.04344297       0.008
  -0.01616969 -0.00927514  0.04344297       0.008
  -0.00005234  0.01864093  0.04344297       0.008
   0.01611735  0.02791607  0.04344297       0.008
   0.03228704  0.03719121  0.04344297       0.008
   0.04845673  0.04646635  0.04344297       0.008
  -0.04856140 -0.00918449  0.04344297       0.008
  -0.03239171  0.00009065  0.04344297       0.008
  -0.01622203  0.00936579  0.04344297       0.008
  -0.00010467  0.03728186  0.04344297       0.008
   0.01606501  0.04655700  0.04344297       0.008
   0.03223470  0.05583214  0.04344297       0.008
   0.04840439  0.06510728  0.04344297       0.008
  -0.04861374  0.00945644  0.04344297       0.008
  -0.03244405  0.01873158  0.04344297       0.008
  -0.01627436  0.02800672  0.04344297       0.008
  -0.00015701  0.05592279  0.04344297       0.008
   0.01601268  0.06519793  0.04344297       0.008
   0.03218236  0.07447307  0.04344297       0.008
   0.04835205  0.08374821  0.04344297       0.008
  -0.04866608  0.02809737  0.04344297       0.008
  -0.03249639  0.03737251  0.04344297       0.008
  -0.01632670  0.04664765  0.04344297       0.008
   0.00015701 -0.05592279  0.04344297       0.008
   0.01632670 -0.04664765  0.04344297       0.008
   0.03249639 -0.03737251  0.04344297       0.008
   0.04866608 -0.02809737  0.04344297       0.008
  -0.04835205 -0.08374821  0.04344297       0.008
  -0.03218236 -0.07447307  0.04344297       0.008
  -0.01601268 -0.06519793  0.04344297       0.008
   0.00010467 -0.03728186  0.04344297       0.008
   0.01627436 -0.02800672  0.04344297       0.008
   0.03244405 -0.01873158  0.04344297       0.008
   0.04861374 -0.00945644  0.04344297       0.008
  -0.04840439 -0.06510728  0.04344297       0.008
  -0.03223470 -0.05583214  0.04344297       0.008
  -0.01606501 -0.04655700  0.04344297       0.008
   0.00005234 -0.01864093  0.04344297       0.008
   0.01622203 -0.00936579  0.04344297       0.008
   0.03239171 -0.00009065  0.04344297       0.008
   0.04856140  0.00918449  0.04344297       0.008
  -0.04845673 -0.04646635  0.04344297       0.008
  -0.03228704 -0.03719121  0.04344297       0.008
  -0.01611735 -0.02791607  0.04344297       0.008
 
 k-points in reciprocal lattice and weights: Automatic mesh                          
   0.00000000  0.00000000  0.00000000       0.004
   0.14285714 -0.00000000  0.00000000       0.008
   0.28571429 -0.00000000  0.00000000       0.008
   0.42857143  0.00000000  0.00000000       0.008
  -0.00000000  0.14285714  0.00000000       0.008
   0.14285714  0.14285714  0.00000000       0.008
   0.28571429  0.14285714  0.00000000       0.008
   0.42857143  0.14285714  0.00000000       0.008
  -0.42857143  0.14285714  0.00000000       0.008
  -0.28571429  0.14285714  0.00000000       0.008
  -0.14285714  0.14285714  0.00000000       0.008
  -0.00000000  0.28571429  0.00000000       0.008
   0.14285714  0.28571429  0.00000000       0.008
   0.28571429  0.28571429  0.00000000       0.008
   0.42857143  0.28571429  0.00000000       0.008
  -0.42857143  0.28571429  0.00000000       0.008
  -0.28571429  0.28571429  0.00000000       0.008
  -0.14285714  0.28571429  0.00000000       0.008
   0.00000000  0.42857143  0.00000000       0.008
   0.14285714  0.42857143  0.00000000       0.008
   0.28571429  0.42857143  0.00000000       0.008
   0.42857143  0.42857143  0.00000000       0.008
  -0.42857143  0.42857143  0.00000000       0.008
  -0.28571429  0.42857143  0.00000000       0.008
  -0.14285714  0.42857143  0.00000000       0.008
   0.00000000  0.00000000  0.20000000       0.008
   0.14285714 -0.00000000  0.20000000       0.008
   0.28571429 -0.00000000  0.20000000       0.008
   0.42857143  0.00000000  0.20000000       0.008
  -0.42857143  0.00000000  0.20000000       0.008
  -0.28571429  0.00000000  0.20000000       0.008
  -0.14285714  0.00000000  0.20000000       0.008
  -0.00000000  0.14285714  0.20000000       0.008
   0.14285714  0.14285714  0.20000000       0.008
   0.28571429  0.14285714  0.20000000       0.008
   0.42857143  0.14285714  0.20000000       0.008
  -0.42857143  0.14285714  0.20000000       0.008
  -0.28571429  0.14285714  0.20000000       0.008
  -0.14285714  0.14285714  0.20000000       0.008
  -0.00000000  0.28571429  0.20000000       0.008
   0.14285714  0.28571429  0.20000000       0.008
   0.28571429  0.28571429  0.20000000       0.008
   0.42857143  0.28571429  0.20000000       0.008
  -0.42857143  0.28571429  0.20000000       0.008
  -0.28571429  0.28571429  0.20000000       0.008
  -0.14285714  0.28571429  0.20000000       0.008
   0.00000000  0.42857143  0.20000000       0.008
   0.14285714  0.42857143  0.20000000       0.008
   0.28571429  0.42857143  0.20000000       0.008
   0.42857143  0.42857143  0.20000000       0.008
  -0.42857143  0.42857143  0.20000000       0.008
  -0.28571429  0.42857143  0.20000000       0.008
  -0.14285714  0.42857143  0.20000000       0.008
   0.00000000 -0.42857143  0.20000000       0.008
   0.14285714 -0.42857143  0.20000000       0.008
   0.28571429 -0.42857143  0.20000000       0.008
   0.42857143 -0.42857143  0.20000000       0.008
  -0.42857143 -0.42857143  0.20000000       0.008
  -0.28571429 -0.42857143  0.20000000       0.008
  -0.14285714 -0.42857143  0.20000000       0.008
   0.00000000 -0.28571429  0.20000000       0.008
   0.14285714 -0.28571429  0.20000000       0.008
   0.28571429 -0.28571429  0.20000000       0.008
   0.42857143 -0.28571429  0.20000000       0.008
  -0.42857143 -0.28571429  0.20000000       0.008
  -0.28571429 -0.28571429  0.20000000       0.008
  -0.14285714 -0.28571429  0.20000000       0.008
   0.00000000 -0.14285714  0.20000000       0.008
   0.14285714 -0.14285714  0.20000000       0.008
   0.28571429 -0.14285714  0.20000000       0.008
   0.42857143 -0.14285714  0.20000000       0.008
  -0.42857143 -0.14285714  0.20000000       0.008
  -0.28571429 -0.14285714  0.20000000       0.008
  -0.14285714 -0.14285714  0.20000000       0.008
   0.00000000  0.00000000  0.40000000       0.008
   0.14285714 -0.00000000  0.40000000       0.008
   0.28571429 -0.00000000  0.40000000       0.008
   0.42857143  0.00000000  0.40000000       0.008
  -0.42857143  0.00000000  0.40000000       0.008
  -0.28571429  0.00000000  0.40000000       0.008
  -0.14285714  0.00000000  0.40000000       0.008
  -0.00000000  0.14285714  0.40000000       0.008
   0.14285714  0.14285714  0.40000000       0.008
   0.28571429  0.14285714  0.40000000       0.008
   0.42857143  0.14285714  0.40000000       0.008
  -0.42857143  0.14285714  0.40000000       0.008
  -0.28571429  0.14285714  0.40000000       0.008
  -0.14285714  0.14285714  0.40000000       0.008
  -0.00000000  0.28571429  0.40000000       0.008
   0.14285714  0.28571429  0.40000000       0.008
   0.28571429  0.28571429  0.40000000       0.008
   0.42857143  0.28571429  0.40000000       0.008
  -0.42857143  0.28571429  0.40000000       0.008
  -0.28571429  0.28571429  0.40000000       0.008
  -0.14285714  0.28571429  0.40000000       0.008
   0.00000000  0.42857143  0.40000000       0.008
   0.14285714  0.42857143  0.40000000       0.008
   0.28571429  0.42857143  0.40000000       0.008
   0.42857143  0.42857143  0.40000000       0.008
  -0.42857143  0.42857143  0.40000000       0.008
  -0.28571429  0.42857143  0.40000000       0.008
  -0.14285714  0.42857143  0.40000000       0.008
   0.00000000 -0.42857143  0.40000000       0.008
   0.14285714 -0.42857143  0.40000000       0.008
   0.28571429 -0.42857143  0.40000000       0.008
   0.42857143 -0.42857143  0.40000000       0.008
  -0.42857143 -0.42857143  0.40000000       0.008
  -0.28571429 -0.42857143  0.40000000       0.008
  -0.14285714 -0.42857143  0.40000000       0.008
   0.00000000 -0.28571429  0.40000000       0.008
   0.14285714 -0.28571429  0.40000000       0.008
   0.28571429 -0.28571429  0.40000000       0.008
   0.42857143 -0.28571429  0.40000000       0.008
  -0.42857143 -0.28571429  0.40000000       0.008
  -0.28571429 -0.28571429  0.40000000       0.008
  -0.14285714 -0.28571429  0.40000000       0.008
   0.00000000 -0.14285714  0.40000000       0.008
   0.14285714 -0.14285714  0.40000000       0.008
   0.28571429 -0.14285714  0.40000000       0.008
   0.42857143 -0.14285714  0.40000000       0.008
  -0.42857143 -0.14285714  0.40000000       0.008
  -0.28571429 -0.14285714  0.40000000       0.008
  -0.14285714 -0.14285714  0.40000000       0.008
 
 position of ions in fractional coordinates (direct lattice) 
   0.10995913  0.22258994  0.12421573
   0.44407673  0.22258994  0.12500000
   0.77741006  0.22258994  0.12500000
   0.11074339  0.55592327  0.12500000
   0.44407673  0.55592327  0.12500000
   0.77741006  0.55592327  0.12500000
   0.11074339  0.88925661  0.12500000
   0.44407673  0.88925661  0.12500000
   0.77741006  0.88925661  0.12500000
   0.11074339  0.22258994  0.62500000
   0.44407673  0.22258994  0.62500000
   0.77741006  0.22258994  0.62500000
   0.11074339  0.55592327  0.62500000
   0.44407673  0.55592327  0.62500000
   0.77741006  0.55592327  0.62500000
   0.11074339  0.88925661  0.62500000
   0.44407673  0.88925661  0.62500000
   0.77741006  0.88925661  0.62500000
   0.22258994  0.11074339  0.37500000
   0.55592327  0.11074339  0.37500000
   0.88925661  0.11074339  0.37500000
   0.22258994  0.44407673  0.37500000
   0.55592327  0.44407673  0.37500000
   0.88925661  0.44407673  0.37500000
   0.22258994  0.77741006  0.37500000
   0.55592327  0.77741006  0.37500000
   0.88925661  0.77741006  0.37500000
   0.22258994  0.11074339  0.87500000
   0.55592327  0.11074339  0.87500000
   0.88925661  0.11074339  0.87500000
   0.22258994  0.44407673  0.87500000
   0.55592327  0.44407673  0.87500000
   0.88925661  0.44407673  0.87500000
   0.22258994  0.77741006  0.87500000
   0.55592327  0.77741006  0.87500000
   0.88925661  0.77741006  0.87500000
 
 position of ions in cartesian coordinates  (Angst):
  -0.00700897  1.70582661  1.14371320
   2.94013115  1.71410118  1.15093431
   5.88035352  1.72235633  1.15093431
  -1.46305318  4.25628090  1.15093431
   1.47716919  4.26453605  1.15093431
   4.41739156  4.27279120  1.15093431
  -2.92601513  6.80671577  1.15093431
   0.01420723  6.81497092  1.15093431
   2.95442960  6.82322607  1.15093431
  -0.00009122  1.70584603  5.75467154
   2.94013115  1.71410118  5.75467154
   5.88035352  1.72235633  5.75467154
  -1.46305318  4.25628090  5.75467154
   1.47716919  4.26453605  5.75467154
   4.41739156  4.27279120  5.75467154
  -2.92601513  6.80671577  5.75467154
   0.01420723  6.81497092  5.75467154
   2.95442960  6.82322607  5.75467154
   1.47735163  0.85284398  3.45280292
   4.41757399  0.86109913  3.45280292
   7.35779636  0.86935428  3.45280292
   0.01438967  3.40327885  3.45280292
   2.95461204  3.41153400  3.45280292
   5.89483440  3.41978915  3.45280292
  -1.44857229  5.95371372  3.45280292
   1.49165008  5.96196887  3.45280292
   4.43187245  5.97022402  3.45280292
   1.47735163  0.85284398  8.05654016
   4.41757399  0.86109913  8.05654016
   7.35779636  0.86935428  8.05654016
   0.01438967  3.40327885  8.05654016
   2.95461204  3.41153400  8.05654016
   5.89483440  3.41978915  8.05654016
  -1.44857229  5.95371372  8.05654016
   1.49165008  5.96196887  8.05654016
   4.43187245  5.97022402  8.05654016
 


--------------------------------------------------------------------------------------------------------


 k-point  1 :  0.00000.00000.0000  plane waves:  15799
 k-point  2 :  0.1429-.00000.0000  plane waves:  15803
 k-point  3 :  0.2857-.00000.0000  plane waves:  15775
 k-point  4 :  0.42860.00000.0000  plane waves:  15802
 k-point  5 :  -.00000.14290.0000  plane waves:  15803
 k-point  6 :  0.14290.14290.0000  plane waves:  15788
 k-point  7 :  0.28570.14290.0000  plane waves:  15800
 k-point  8 :  0.42860.14290.0000  plane waves:  15810
 k-point  9 :  -.42860.14290.0000  plane waves:  15792
 k-point 10 :  -.28570.14290.0000  plane waves:  15784
 k-point 11 :  -.14290.14290.0000  plane waves:  15786
 k-point 12 :  -.00000.28570.0000  plane waves:  15775
 k-point 13 :  0.14290.28570.0000  plane waves:  15800
 k-point 14 :  0.28570.28570.0000  plane waves:  15828
 k-point 15 :  0.42860.28570.0000  plane waves:  15815
 k-point 16 :  -.42860.28570.0000  plane waves:  15819
 k-point 17 :  -.28570.28570.0000  plane waves:  15792
 k-point 18 :  -.14290.28570.0000  plane waves:  15784
 k-point 19 :  0.00000.42860.0000  plane waves:  15802
 k-point 20 :  0.14290.42860.0000  plane waves:  15810
 k-point 21 :  0.28570.42860.0000  plane waves:  15815
 k-point 22 :  0.42860.42860.0000  plane waves:  15832
 k-point 23 :  -.42860.42860.0000  plane waves:  15834
 k-point 24 :  -.28570.42860.0000  plane waves:  15819
 k-point 25 :  -.14290.42860.0000  plane waves:  15792
 k-point 26 :  0.00000.00000.2000  plane waves:  15799
 k-point 27 :  0.1429-.00000.2000  plane waves:  15778
 k-point 28 :  0.2857-.00000.2000  plane waves:  15796
 k-point 29 :  0.42860.00000.2000  plane waves:  15788
 k-point 30 :  -.42860.00000.2000  plane waves:  15788
 k-point 31 :  -.28570.00000.2000  plane waves:  15796
 k-point 32 :  -.14290.00000.2000  plane waves:  15778
 k-point 33 :  -.00000.14290.2000  plane waves:  15778
 k-point 34 :  0.14290.14290.2000  plane waves:  15800
 k-point 35 :  0.28570.14290.2000  plane waves:  15800
 k-point 36 :  0.42860.14290.2000  plane waves:  15804
 k-point 37 :  -.42860.14290.2000  plane waves:  15812
 k-point 38 :  -.28570.14290.2000  plane waves:  15788
 k-point 39 :  -.14290.14290.2000  plane waves:  15778
 k-point 40 :  -.00000.28570.2000  plane waves:  15796
 k-point 41 :  0.14290.28570.2000  plane waves:  15800
 k-point 42 :  0.28570.28570.2000  plane waves:  15811
 k-point 43 :  0.42860.28570.2000  plane waves:  15794
 k-point 44 :  -.42860.28570.2000  plane waves:  15808
 k-point 45 :  -.28570.28570.2000  plane waves:  15808
 k-point 46 :  -.14290.28570.2000  plane waves:  15788
 k-point 47 :  0.00000.42860.2000  plane waves:  15788
 k-point 48 :  0.14290.42860.2000  plane waves:  15804
 k-point 49 :  0.28570.42860.2000  plane waves:  15794
 k-point 50 :  0.42860.42860.2000  plane waves:  15786
 k-point 51 :  -.42860.42860.2000  plane waves:  15811
 k-point 52 :  -.28570.42860.2000  plane waves:  15808
 k-point 53 :  -.14290.42860.2000  plane waves:  15812
 k-point 54 :  0.0000-.42860.2000  plane waves:  15788
 k-point 55 :  0.1429-.42860.2000  plane waves:  15812
 k-point 56 :  0.2857-.42860.2000  plane waves:  15808
 k-point 57 :  0.4286-.42860.2000  plane waves:  15811
 k-point 58 :  -.4286-.42860.2000  plane waves:  15786
 k-point 59 :  -.2857-.42860.2000  plane waves:  15794
 k-point 60 :  -.1429-.42860.2000  plane waves:  15804
 k-point 61 :  0.0000-.28570.2000  plane waves:  15796
 k-point 62 :  0.1429-.28570.2000  plane waves:  15788
 k-point 63 :  0.2857-.28570.2000  plane waves:  15808
 k-point 64 :  0.4286-.28570.2000  plane waves:  15808
 k-point 65 :  -.4286-.28570.2000  plane waves:  15794
 k-point 66 :  -.2857-.28570.2000  plane waves:  15811
 k-point 67 :  -.1429-.28570.2000  plane waves:  15800
 k-point 68 :  0.0000-.14290.2000  plane waves:  15778
 k-point 69 :  0.1429-.14290.2000  plane waves:  15778
 k-point 70 :  0.2857-.14290.2000  plane waves:  15788
 k-point 71 :  0.4286-.14290.2000  plane waves:  15812
 k-point 72 :  -.4286-.14290.2000  plane waves:  15804
 k-point 73 :  -.2857-.14290.2000  plane waves:  15800
 k-point 74 :  -.1429-.14290.2000  plane waves:  15800
 k-point 75 :  0.00000.00000.4000  plane waves:  15742
 k-point 76 :  0.1429-.00000.4000  plane waves:  15789
 k-point 77 :  0.2857-.00000.4000  plane waves:  15806
 k-point 78 :  0.42860.00000.4000  plane waves:  15812
 k-point 79 :  -.42860.00000.4000  plane waves:  15812
 k-point 80 :  -.28570.00000.4000  plane waves:  15806
 k-point 81 :  -.14290.00000.4000  plane waves:  15789
 k-point 82 :  -.00000.14290.4000  plane waves:  15789
 k-point 83 :  0.14290.14290.4000  plane waves:  15816
 k-point 84 :  0.28570.14290.4000  plane waves:  15819
 k-point 85 :  0.42860.14290.4000  plane waves:  15793
 k-point 86 :  -.42860.14290.4000  plane waves:  15808
 k-point 87 :  -.28570.14290.4000  plane waves:  15801
 k-point 88 :  -.14290.14290.4000  plane waves:  15793
 k-point 89 :  -.00000.28570.4000  plane waves:  15806
 k-point 90 :  0.14290.28570.4000  plane waves:  15819
 k-point 91 :  0.28570.28570.4000  plane waves:  15813
 k-point 92 :  0.42860.28570.4000  plane waves:  15804
 k-point 93 :  -.42860.28570.4000  plane waves:  15817
 k-point 94 :  -.28570.28570.4000  plane waves:  15803
 k-point 95 :  -.14290.28570.4000  plane waves:  15801
 k-point 96 :  0.00000.42860.4000  plane waves:  15812
 k-point 97 :  0.14290.42860.4000  plane waves:  15793
 k-point 98 :  0.28570.42860.4000  plane waves:  15804
 k-point 99 :  0.42860.42860.4000  plane waves:  15811
 k-point ** :  -.42860.42860.4000  plane waves:  15809
 k-point ** :  -.28570.42860.4000  plane waves:  15817
 k-point ** :  -.14290.42860.4000  plane waves:  15808
 k-point ** :  0.0000-.42860.4000  plane waves:  15812
 k-point ** :  0.1429-.42860.4000  plane waves:  15808
 k-point ** :  0.2857-.42860.4000  plane waves:  15817
 k-point ** :  0.4286-.42860.4000  plane waves:  15809
 k-point ** :  -.4286-.42860.4000  plane waves:  15811
 k-point ** :  -.2857-.42860.4000  plane waves:  15804
 k-point ** :  -.1429-.42860.4000  plane waves:  15793
 k-point ** :  0.0000-.28570.4000  plane waves:  15806
 k-point ** :  0.1429-.28570.4000  plane waves:  15801
 k-point ** :  0.2857-.28570.4000  plane waves:  15803
 k-point ** :  0.4286-.28570.4000  plane waves:  15817
 k-point ** :  -.4286-.28570.4000  plane waves:  15804
 k-point ** :  -.2857-.28570.4000  plane waves:  15813
 k-point ** :  -.1429-.28570.4000  plane waves:  15819
 k-point ** :  0.0000-.14290.4000  plane waves:  15789
 k-point ** :  0.1429-.14290.4000  plane waves:  15793
 k-point ** :  0.2857-.14290.4000  plane waves:  15801
 k-point ** :  0.4286-.14290.4000  plane waves:  15808
 k-point ** :  -.4286-.14290.4000  plane waves:  15793
 k-point ** :  -.2857-.14290.4000  plane waves:  15819
 k-point ** :  -.1429-.14290.4000  plane waves:  15816

 maximum and minimum number of plane-waves per node :  15834 15742

 maximum number of plane-waves:  15834
 maximal index in each direction: 
   IXMAX= 16   IYMAX= 16   IZMAX= 16
   IXMIN=-16   IYMIN=-16   IZMIN=-17

 WARNING: wrap around error must be expected set NGX to  66
 WARNING: wrap around error must be expected set NGY to  66
 NGZ is ok and might be reduce to  68

 parallel 3dFFT wavefunction:
    minimum data exchange during FFTs selected (reduces bandwidth)
 parallel 3dFFT charge:
    minimum data exchange during FFTs selected (reduces bandwidth)

 For storing wavefunctions 6716.90 MBYTES are necessary
 For predicting wavefunctions  117.32 MBYTES are necessary
Broyden mixing: mesh for mixing (old mesh)
   NGX = 33   NGY = 33   NGZ = 33
  (NGX  =128   NGY  =128   NGZ  =140)
 gives a total of  35937 points
 initial charge density was supplied:
 charge density of overlapping atoms calculated
 number of electron  360.0000000 magnetization 
 keeping initial charge density in first step


--------------------------------------------------------------------------------------------------------


 Maximum index for augmentation-charges         2196 (set IRDMAX)


--------------------------------------------------------------------------------------------------------


 First call to EWALD:  gamma=   0.208
 Maximum number of real-space cells 3x 3x 3
 Maximum number of reciprocal cells 3x 3x 3

    FEWALD:  VPU time    0.01: CPU time    0.01


----------------------------------------- Iteration    1(   1)  ---------------------------------------


    POTLOK:  VPU time    0.41: CPU time    3.63
    SETDIJ:  VPU time    0.02: CPU time    0.02
    EDDAV :  VPU time  431.17: CPU time  450.57
    DOS   :  VPU time   -0.00: CPU time   -0.24
    ------------------------------------------
      LOOP:  VPU time  431.70: CPU time  454.89

 eigenvalue-minimisations  : 53832
 total energy-change (2. order) : 0.4993609E+04  (-0.1718828E+05)
 number of electron  360.0000000 magnetization 
 augmentation part   360.0000000 magnetization 

 Free energy of the ion-electron system (eV)
  ---------------------------------------------------
  alpha Z        PSCENC =      2270.51201468
  Ewald energy   TEWEN  =    -28942.79035897
  -1/2 Hartree   DENC   =     -7971.31891344
  -V(xc)+E(xc)   XCENC  =      1293.32569494
  PAW double counting   =     25711.31321228   -25685.71707589
  entropy T*S    EENTRO =        -0.00092198
  eigenvalues    EBANDS =       792.76090317
  atomic energy  EATOM  =     37525.52423787
  ---------------------------------------------------
  free energy    TOTEN  =      4993.60879266 eV

  energy without entropy =     4993.60971465  energy(sigma->0) =     4993.60925365


--------------------------------------------------------------------------------------------------------




----------------------------------------- Iteration    1(   2)  ---------------------------------------


    EDDAV :  VPU time  373.52: CPU time  377.06
    DOS   :  VPU time   -0.00: CPU time   -0.36
    ------------------------------------------
      LOOP:  VPU time  373.62: CPU time  377.71

 eigenvalue-minimisations  : 53136
 total energy-change (2. order) :-0.4902506E+04  (-0.4826442E+04)
 number of electron  360.0000000 magnetization 
 augmentation part   360.0000000 magnetization 

 Free energy of the ion-electron system (eV)
  ---------------------------------------------------
  alpha Z        PSCENC =      2270.51201468
  Ewald energy   TEWEN  =    -28942.79035897
  -1/2 Hartree   DENC   =     -7971.31891344
  -V(xc)+E(xc)   XCENC  =      1293.32569494
  PAW double counting   =     25711.31321228   -25685.71707589
  entropy T*S    EENTRO =        -0.00170339
  eigenvalues    EBANDS =     -4109.74399193
  atomic energy  EATOM  =     37525.52423787
  ---------------------------------------------------
  free energy    TOTEN  =        91.10311616 eV

  energy without entropy =       91.10481955  energy(sigma->0) =       91.10396785


--------------------------------------------------------------------------------------------------------




----------------------------------------- Iteration    1(   3)  ---------------------------------------


    EDDAV :  VPU time  541.37: CPU time  582.66
    DOS   :  VPU time   -0.00: CPU time   -0.00
    ------------------------------------------
      LOOP:  VPU time  541.47: CPU time  582.78

 eigenvalue-minimisations  : 77632
 total energy-change (2. order) :-0.3831901E+03  (-0.3604410E+03)
 number of electron  360.0000000 magnetization 
 augmentation part   360.0000000 magnetization 

 Free energy of the ion-electron system (eV)
  ---------------------------------------------------
  alpha Z        PSCENC =      2270.51201468
  Ewald energy   TEWEN  =    -28942.79035897
  -1/2 Hartree   DENC   =     -7971.31891344
  -V(xc)+E(xc)   XCENC  =      1293.32569494
  PAW double counting   =     25711.31321228   -25685.71707589
  entropy T*S    EENTRO =        -0.00120774
  eigenvalues    EBANDS =     -4492.93463271
  atomic energy  EATOM  =     37525.52423787
  ---------------------------------------------------
  free energy    TOTEN  =      -292.08702898 eV

  energy without entropy =     -292.08582124  energy(sigma->0) =     -292.08642511


--------------------------------------------------------------------------------------------------------




----------------------------------------- Iteration    1(   4)  ---------------------------------------


    EDDAV :  VPU time  668.03: CPU time  763.43
    DOS   :  VPU time    0.00: CPU time   -0.14
    ------------------------------------------
      LOOP:  VPU time  669.06: CPU time  766.63

 eigenvalue-minimisations  : 72712
 total energy-change (2. order) :-0.3145652E+02  (-0.3057825E+02)
 number of electron  360.0000000 magnetization 
 augmentation part   360.0000000 magnetization 

 Free energy of the ion-electron system (eV)
  ---------------------------------------------------
  alpha Z        PSCENC =      2270.51201468
  Ewald energy   TEWEN  =    -28942.79035897
  -1/2 Hartree   DENC   =     -7971.31891344
  -V(xc)+E(xc)   XCENC  =      1293.32569494
  PAW double counting   =     25711.31321228   -25685.71707589
  entropy T*S    EENTRO =        -0.00086497
  eigenvalues    EBANDS =     -4524.39149348
  atomic energy  EATOM  =     37525.52423787
  ---------------------------------------------------
  free energy    TOTEN  =      -323.54354697 eV

  energy without entropy =     -323.54268200  energy(sigma->0) =     -323.54311448


--------------------------------------------------------------------------------------------------------




----------------------------------------- Iteration    1(   5)  ---------------------------------------


    EDDAV :  VPU time  970.03: CPU time 1295.64
    DOS   :  VPU time   -0.01: CPU time   -0.09
    CHARGE:  VPU time   26.64: CPU time   49.55
    MIXING:  VPU time    0.13: CPU time    0.14
    ------------------------------------------
      LOOP:  VPU time  997.18: CPU time 1345.88

 eigenvalue-minimisations  : 69528
 total energy-change (2. order) :-0.9262366E+00  (-0.9060901E+00)
 number of electron  360.0000133 magnetization 
 augmentation part   157.2814397 magnetization 

 Broyden mixing:
  rms(total) = 0.35752E+01    rms(broyden)= 0.35752E+01
  rms(prec ) = 0.50986E+01
  weight for this iteration     100.00

 Free energy of the ion-electron system (eV)
  ---------------------------------------------------
  alpha Z        PSCENC =      2270.51201468
  Ewald energy   TEWEN  =    -28942.79035897
  -1/2 Hartree   DENC   =     -7971.31891344
  -V(xc)+E(xc)   XCENC  =      1293.32569494
  PAW double counting   =     25711.31321228   -25685.71707589
  entropy T*S    EENTRO =        -0.00094340
  eigenvalues    EBANDS =     -4525.31765168
  atomic energy  EATOM  =     37525.52423787
  ---------------------------------------------------
  free energy    TOTEN  =      -324.46978360 eV

  energy without entropy =     -324.46884020  energy(sigma->0) =     -324.46931190


--------------------------------------------------------------------------------------------------------




----------------------------------------- Iteration    1(   6)  ---------------------------------------


    POTLOK:  VPU time    1.29: CPU time    5.22
    SETDIJ:  VPU time    0.09: CPU time    0.12
    EDDAV :  VPU time  596.14: CPU time  619.71
    DOS   :  VPU time   -0.00: CPU time   -0.02
    CHARGE:  VPU time   27.42: CPU time   27.42
    MIXING:  VPU time    0.02: CPU time    0.34
    ------------------------------------------
      LOOP:  VPU time  625.06: CPU time  653.00

 eigenvalue-minimisations  : 57928
 total energy-change (2. order) : 0.3835432E+02  (-0.1192373E+02)
 number of electron  360.0000142 magnetization 
 augmentation part   166.6218790 magnetization 

 Broyden mixing:
  rms(total) = 0.91127E+00    rms(broyden)= 0.91123E+00
  rms(prec ) = 0.13156E+01
  weight for this iteration     100.00

 eigenvalues of (default mixing * dielectric matrix)
  average eigenvalue GAMMA=   1.2659
  1.2659

 Free energy of the ion-electron system (eV)
  ---------------------------------------------------
  alpha Z        PSCENC =      2270.51201468
  Ewald energy   TEWEN  =    -28942.79035897
  -1/2 Hartree   DENC   =     -7263.68744354
  -V(xc)+E(xc)   XCENC  =      1255.80993515
  PAW double counting   =     24933.50251860   -24976.02831602
  entropy T*S    EENTRO =        -0.00230579
  eigenvalues    EBANDS =     -5088.95574339
  atomic energy  EATOM  =     37525.52423787
  ---------------------------------------------------
  free energy    TOTEN  =      -286.11546141 eV

  energy without entropy =     -286.11315562  energy(sigma->0) =     -286.11430851


--------------------------------------------------------------------------------------------------------




----------------------------------------- Iteration    1(   7)  ---------------------------------------


    POTLOK:  VPU time    0.33: CPU time    0.35
    SETDIJ:  VPU time    0.02: CPU time    0.02
    EDDAV :  VPU time  663.83: CPU time  665.28
    DOS   :  VPU time   -0.00: CPU time   -0.00
    CHARGE:  VPU time   28.20: CPU time   28.20
    MIXING:  VPU time    0.02: CPU time    0.72
    ------------------------------------------
      LOOP:  VPU time  692.57: CPU time  694.89

 eigenvalue-minimisations  : 70088
 total energy-change (2. order) : 0.1912126E+01  (-0.1547945E+01)
 number of electron  360.0000146 magnetization 
 augmentation part   169.9915248 magnetization 

 Broyden mixing:
  rms(total) = 0.35299E+00    rms(broyden)= 0.35298E+00
  rms(prec ) = 0.42198E+00
  weight for this iteration     100.00

 eigenvalues of (default mixing * dielectric matrix)
  average eigenvalue GAMMA=   1.8600
  1.4061  2.3138

 Free energy of the ion-electron system (eV)
  ---------------------------------------------------
  alpha Z        PSCENC =      2270.51201468
  Ewald energy   TEWEN  =    -28942.79035897
  -1/2 Hartree   DENC   =     -7053.35815045
  -V(xc)+E(xc)   XCENC  =      1245.39413667
  PAW double counting   =     25078.09665322   -25159.70661283
  entropy T*S    EENTRO =        -0.00177370
  eigenvalues    EBANDS =     -5247.87348196
  atomic energy  EATOM  =     37525.52423787
  ---------------------------------------------------
  free energy    TOTEN  =      -284.20333546 eV

  energy without entropy =     -284.20156176  energy(sigma->0) =     -284.20244861


--------------------------------------------------------------------------------------------------------




----------------------------------------- Iteration    1(   8)  ---------------------------------------


    POTLOK:  VPU time    0.39: CPU time    0.43
    SETDIJ:  VPU time    0.04: CPU time    0.05
    EDDAV :  VPU time  657.05: CPU time  660.61
    DOS   :  VPU time    0.00: CPU time   -0.00
    CHARGE:  VPU time   29.70: CPU time   29.76
    MIXING:  VPU time    0.01: CPU time    0.01
    ------------------------------------------
      LOOP:  VPU time  687.29: CPU time  690.98

 eigenvalue-minimisations  : 70472
 total energy-change (2. order) :-0.8024405E-01  (-0.2836699E+00)
 number of electron  360.0000145 magnetization 
 augmentation part   169.0035386 magnetization 

 Broyden mixing:
  rms(total) = 0.37849E+00    rms(broyden)= 0.37849E+00
  rms(prec ) = 0.82363E+00
  weight for this iteration     100.00

 eigenvalues of (default mixing * dielectric matrix)
  average eigenvalue GAMMA=   1.3753
  2.5160  1.3657  0.2442

 Free energy of the ion-electron system (eV)
  ---------------------------------------------------
  alpha Z        PSCENC =      2270.51201468
  Ewald energy   TEWEN  =    -28942.79035897
  -1/2 Hartree   DENC   =     -7092.18697798
  -V(xc)+E(xc)   XCENC  =      1248.48349399
  PAW double counting   =     25611.58273634   -25709.78871930
  entropy T*S    EENTRO =        -0.00199233
  eigenvalues    EBANDS =     -5195.61801382
  atomic energy  EATOM  =     37525.52423787
  ---------------------------------------------------
  free energy    TOTEN  =      -284.28357951 eV

  energy without entropy =     -284.28158718  energy(sigma->0) =     -284.28258335


--------------------------------------------------------------------------------------------------------




----------------------------------------- Iteration    1(   9)  ---------------------------------------


    POTLOK:  VPU time    0.27: CPU time    0.27
    SETDIJ:  VPU time    0.02: CPU time    0.02
    EDDAV :  VPU time  704.77: CPU time  705.23
    DOS   :  VPU time    0.00: CPU time   -0.00
    CHARGE:  VPU time   23.51: CPU time   23.51
    MIXING:  VPU time    0.01: CPU time    0.01
    ------------------------------------------
      LOOP:  VPU time  728.68: CPU time  729.14

 eigenvalue-minimisations  : 74552
 total energy-change (2. order) : 0.1746803E+00  (-0.9784181E-01)
 number of electron  360.0000145 magnetization 
 augmentation part   168.9601276 magnetization 

 Broyden mixing:
  rms(total) = 0.17482E+00    rms(broyden)= 0.17481E+00
  rms(prec ) = 0.25363E+00
  weight for this iteration     100.00

 eigenvalues of (default mixing * dielectric matrix)
  average eigenvalue GAMMA=   1.1636
  2.5615  1.2917  0.5750  0.2262

 Free energy of the ion-electron system (eV)
  ---------------------------------------------------
  alpha Z        PSCENC =      2270.51201468
  Ewald energy   TEWEN  =    -28942.79035897
  -1/2 Hartree   DENC   =     -7089.40403472
  -V(xc)+E(xc)   XCENC  =      1248.60861613
  PAW double counting   =     25725.39335466   -25828.41726031
  entropy T*S    EENTRO =        -0.00228233
  eigenvalues    EBANDS =     -5193.53318618
  atomic energy  EATOM  =     37525.52423787
  ---------------------------------------------------
  free energy    TOTEN  =      -284.10889917 eV

  energy without entropy =     -284.10661684  energy(sigma->0) =     -284.10775801


--------------------------------------------------------------------------------------------------------




----------------------------------------- Iteration    1(  10)  ---------------------------------------


    POTLOK:  VPU time    0.24: CPU time    0.24
    SETDIJ:  VPU time    0.02: CPU time    0.02
    EDDAV :  VPU time  670.29: CPU time  673.94
    DOS   :  VPU time    0.00: CPU time   -0.00
    CHARGE:  VPU time   27.54: CPU time   27.54
    MIXING:  VPU time    0.02: CPU time    0.32
    ------------------------------------------
      LOOP:  VPU time  698.22: CPU time  702.17

 eigenvalue-minimisations  : 71384
 total energy-change (2. order) : 0.6296437E-01  (-0.1592263E-01)
 number of electron  360.0000146 magnetization 
 augmentation part   169.2258826 magnetization 

 Broyden mixing:
  rms(total) = 0.99073E-01    rms(broyden)= 0.99072E-01
  rms(prec ) = 0.14416E+00
  weight for this iteration     100.00

 eigenvalues of (default mixing * dielectric matrix)
  average eigenvalue GAMMA=   1.0865
  2.5953  1.1825  1.1825  0.2360  0.2360

 Free energy of the ion-electron system (eV)
  ---------------------------------------------------
  alpha Z        PSCENC =      2270.51201468
  Ewald energy   TEWEN  =    -28942.79035897
  -1/2 Hartree   DENC   =     -7072.77637016
  -V(xc)+E(xc)   XCENC  =      1247.71981606
  PAW double counting   =     25697.06315915   -25800.66387343
  entropy T*S    EENTRO =        -0.00230201
  eigenvalues    EBANDS =     -5208.63225800
  atomic energy  EATOM  =     37525.52423787
  ---------------------------------------------------
  free energy    TOTEN  =      -284.04593480 eV

  energy without entropy =     -284.04363279  energy(sigma->0) =     -284.04478379


--------------------------------------------------------------------------------------------------------




----------------------------------------- Iteration    1(  11)  ---------------------------------------


    POTLOK:  VPU time    0.25: CPU time    0.25
    SETDIJ:  VPU time    0.02: CPU time    0.02
    EDDAV :  VPU time  605.18: CPU time  605.69
    DOS   :  VPU time   -0.00: CPU time   -0.00
    CHARGE:  VPU time   24.10: CPU time   24.10
    MIXING:  VPU time    0.01: CPU time    0.01
    ------------------------------------------
      LOOP:  VPU time  629.66: CPU time  630.29

 eigenvalue-minimisations  : 62904
 total energy-change (2. order) : 0.2940462E-01  (-0.2110251E-01)
 number of electron  360.0000146 magnetization 
 augmentation part   169.6393833 magnetization 

 Broyden mixing:
  rms(total) = 0.24748E-01    rms(broyden)= 0.24746E-01
  rms(prec ) = 0.38477E-01
  weight for this iteration     100.00

 eigenvalues of (default mixing * dielectric matrix)
  average eigenvalue GAMMA=   1.0023
  2.5886  1.2590  1.2590  0.4304  0.2224  0.2544

 Free energy of the ion-electron system (eV)
  ---------------------------------------------------
  alpha Z        PSCENC =      2270.51201468
  Ewald energy   TEWEN  =    -28942.79035897
  -1/2 Hartree   DENC   =     -7049.90444587
  -V(xc)+E(xc)   XCENC  =      1246.48045468
  PAW double counting   =     25651.84775083   -25755.61420359
  entropy T*S    EENTRO =        -0.00200043
  eigenvalues    EBANDS =     -5230.06997938
  atomic energy  EATOM  =     37525.52423787
  ---------------------------------------------------
  free energy    TOTEN  =      -284.01653018 eV

  energy without entropy =     -284.01452975  energy(sigma->0) =     -284.01552997


--------------------------------------------------------------------------------------------------------




----------------------------------------- Iteration    1(  12)  ---------------------------------------


    POTLOK:  VPU time    0.25: CPU time    0.25
    SETDIJ:  VPU time    0.02: CPU time    0.02
    EDDAV :  VPU time  675.94: CPU time  679.85
    DOS   :  VPU time    0.00: CPU time   -0.00
    CHARGE:  VPU time   29.20: CPU time   29.20
    MIXING:  VPU time    0.01: CPU time    0.01
    ------------------------------------------
      LOOP:  VPU time  705.52: CPU time  709.44

 eigenvalue-minimisations  : 71784
 total energy-change (2. order) :-0.7687648E-03  (-0.9825736E-03)
 number of electron  360.0000146 magnetization 
 augmentation part   169.6649606 magnetization 

 Broyden mixing:
  rms(total) = 0.26117E-01    rms(broyden)= 0.26117E-01
  rms(prec ) = 0.36640E-01
  weight for this iteration     100.00

 eigenvalues of (default mixing * dielectric matrix)
  average eigenvalue GAMMA=   1.0222
  2.5500  1.7604  1.2033  0.8955  0.2201  0.2629  0.2629

 Free energy of the ion-electron system (eV)
  ---------------------------------------------------
  alpha Z        PSCENC =      2270.51201468
  Ewald energy   TEWEN  =    -28942.79035897
  -1/2 Hartree   DENC   =     -7049.45546777
  -V(xc)+E(xc)   XCENC  =      1246.45438369
  PAW double counting   =     25650.34720830   -25753.59477186
  entropy T*S    EENTRO =        -0.00198133
  eigenvalues    EBANDS =     -5231.01256357
  atomic energy  EATOM  =     37525.52423787
  ---------------------------------------------------
  free energy    TOTEN  =      -284.01729895 eV

  energy without entropy =     -284.01531762  energy(sigma->0) =     -284.01630828


--------------------------------------------------------------------------------------------------------




----------------------------------------- Iteration    1(  13)  ---------------------------------------


    POTLOK:  VPU time    0.28: CPU time    0.28
    SETDIJ:  VPU time    0.02: CPU time    0.02
    EDDAV :  VPU time  639.74: CPU time  641.01
    DOS   :  VPU time    0.00: CPU time   -0.00
    CHARGE:  VPU time   25.38: CPU time   25.44
    MIXING:  VPU time    0.01: CPU time    0.01
    ------------------------------------------
      LOOP:  VPU time  665.53: CPU time  666.87

 eigenvalue-minimisations  : 67520
 total energy-change (2. order) : 0.1307529E-02  (-0.3990331E-03)
 number of electron  360.0000146 magnetization 
 augmentation part   169.6159278 magnetization 

 Broyden mixing:
  rms(total) = 0.10298E-01    rms(broyden)= 0.10298E-01
  rms(prec ) = 0.15792E-01
  weight for this iteration     100.00

 eigenvalues of (default mixing * dielectric matrix)
  average eigenvalue GAMMA=   0.9711
  2.5462  1.9854  1.1514  0.9369  0.4135  0.2205  0.2575  0.2575

 Free energy of the ion-electron system (eV)
  ---------------------------------------------------
  alpha Z        PSCENC =      2270.51201468
  Ewald energy   TEWEN  =    -28942.79035897
  -1/2 Hartree   DENC   =     -7053.52771938
  -V(xc)+E(xc)   XCENC  =      1246.67342087
  PAW double counting   =     25657.40289788   -25759.36928202
  entropy T*S    EENTRO =        -0.00202593
  eigenvalues    EBANDS =     -5228.43917643
  atomic energy  EATOM  =     37525.52423787
  ---------------------------------------------------
  free energy    TOTEN  =      -284.01599142 eV

  energy without entropy =     -284.01396549  energy(sigma->0) =     -284.01497845


--------------------------------------------------------------------------------------------------------




----------------------------------------- Iteration    1(  14)  ---------------------------------------


    POTLOK:  VPU time    0.26: CPU time    0.26
    SETDIJ:  VPU time    0.02: CPU time    0.02
    EDDAV :  VPU time  680.41: CPU time  683.02
    DOS   :  VPU time    0.00: CPU time   -0.00
    CHARGE:  VPU time   26.60: CPU time   26.61
    MIXING:  VPU time    0.01: CPU time    0.01
    ------------------------------------------
      LOOP:  VPU time  707.41: CPU time  710.03

 eigenvalue-minimisations  : 71040
 total energy-change (2. order) : 0.1841857E-03  (-0.6826314E-04)
 number of electron  360.0000146 magnetization 
 augmentation part   169.6010917 magnetization 

 Broyden mixing:
  rms(total) = 0.51882E-02    rms(broyden)= 0.51880E-02
  rms(prec ) = 0.82077E-02
  weight for this iteration     100.00

 eigenvalues of (default mixing * dielectric matrix)
  average eigenvalue GAMMA=   0.9768
  2.6048  2.0200  1.2556  0.9550  0.9550  0.2198  0.2634  0.2634  0.2540

 Free energy of the ion-electron system (eV)
  ---------------------------------------------------
  alpha Z        PSCENC =      2270.51201468
  Ewald energy   TEWEN  =    -28942.79035897
  -1/2 Hartree   DENC   =     -7054.73861396
  -V(xc)+E(xc)   XCENC  =      1246.74014809
  PAW double counting   =     25659.93117261   -25761.46181528
  entropy T*S    EENTRO =        -0.00203942
  eigenvalues    EBANDS =     -5227.73055286
  atomic energy  EATOM  =     37525.52423787
  ---------------------------------------------------
  free energy    TOTEN  =      -284.01580723 eV

  energy without entropy =     -284.01376781  energy(sigma->0) =     -284.01478752


--------------------------------------------------------------------------------------------------------




----------------------------------------- Iteration    1(  15)  ---------------------------------------


    POTLOK:  VPU time    0.26: CPU time    0.26
    SETDIJ:  VPU time    0.02: CPU time    0.02
    EDDAV :  VPU time  675.56: CPU time  679.55
    DOS   :  VPU time    0.00: CPU time   -0.00
    CHARGE:  VPU time   28.61: CPU time   28.61
    MIXING:  VPU time    0.01: CPU time    0.01
    ------------------------------------------
      LOOP:  VPU time  704.58: CPU time  708.59

 eigenvalue-minimisations  : 72840
 total energy-change (2. order) : 0.4247938E-04  (-0.1234198E-04)
 number of electron  360.0000146 magnetization 
 augmentation part   169.5999370 magnetization 

 Broyden mixing:
  rms(total) = 0.34324E-02    rms(broyden)= 0.34323E-02
  rms(prec ) = 0.56871E-02
  weight for this iteration     100.00

 eigenvalues of (default mixing * dielectric matrix)
  average eigenvalue GAMMA=   0.9223
  2.6159  2.0286  1.2964  0.9982  0.9982  0.2922  0.2922  0.2200  0.2405  0.2405

 Free energy of the ion-electron system (eV)
  ---------------------------------------------------
  alpha Z        PSCENC =      2270.51201468
  Ewald energy   TEWEN  =    -28942.79035897
  -1/2 Hartree   DENC   =     -7055.00300883
  -V(xc)+E(xc)   XCENC  =      1246.75745586
  PAW double counting   =     25661.15736773   -25762.46262977
  entropy T*S    EENTRO =        -0.00204047
  eigenvalues    EBANDS =     -5227.70880285
  atomic energy  EATOM  =     37525.52423787
  ---------------------------------------------------
  free energy    TOTEN  =      -284.01576475 eV

  energy without entropy =     -284.01372428  energy(sigma->0) =     -284.01474452


--------------------------------------------------------------------------------------------------------




----------------------------------------- Iteration    1(  16)  ---------------------------------------


    POTLOK:  VPU time    0.25: CPU time    0.25
    SETDIJ:  VPU time    0.02: CPU time    0.02
    EDDAV :  VPU time  687.44: CPU time  688.36
    DOS   :  VPU time    0.00: CPU time   -0.00
    CHARGE:  VPU time   26.39: CPU time   26.40
    MIXING:  VPU time    0.01: CPU time    0.01
    ------------------------------------------
      LOOP:  VPU time  714.22: CPU time  715.16

 eigenvalue-minimisations  : 73760
 total energy-change (2. order) : 0.1987095E-04  (-0.4031057E-05)
 number of electron  360.0000146 magnetization 
 augmentation part   169.5990347 magnetization 

 Broyden mixing:
  rms(total) = 0.25122E-02    rms(broyden)= 0.25122E-02
  rms(prec ) = 0.35547E-02
  weight for this iteration     100.00

 eigenvalues of (default mixing * dielectric matrix)
  average eigenvalue GAMMA=   0.9574
  2.6182  2.1171  1.5533  1.1102  1.1102  0.7998  0.2747  0.2573  0.2573  0.2186
  0.2153

 Free energy of the ion-electron system (eV)
  ---------------------------------------------------
  alpha Z        PSCENC =      2270.51201468
  Ewald energy   TEWEN  =    -28942.79035897
  -1/2 Hartree   DENC   =     -7055.11634475
  -V(xc)+E(xc)   XCENC  =      1246.76443929
  PAW double counting   =     25661.49497103   -25762.71861921
  entropy T*S    EENTRO =        -0.00204112
  eigenvalues    EBANDS =     -5227.68404371
  atomic energy  EATOM  =     37525.52423787
  ---------------------------------------------------
  free energy    TOTEN  =      -284.01574488 eV

  energy without entropy =     -284.01370376  energy(sigma->0) =     -284.01472432


--------------------------------------------------------------------------------------------------------




----------------------------------------- Iteration    1(  17)  ---------------------------------------


    POTLOK:  VPU time    0.29: CPU time    0.29
    SETDIJ:  VPU time    0.02: CPU time    0.02
    EDDAV :  VPU time  676.57: CPU time  679.27
    DOS   :  VPU time   -0.00: CPU time   -0.00
    CHARGE:  VPU time   27.71: CPU time   27.76
    MIXING:  VPU time    0.01: CPU time    0.01
    ------------------------------------------
      LOOP:  VPU time  704.69: CPU time  707.48

 eigenvalue-minimisations  : 69336
 total energy-change (2. order) : 0.3227125E-04  (-0.2717076E-05)
 number of electron  360.0000146 magnetization 
 augmentation part   169.5950746 magnetization 

 Broyden mixing:
[...]
     97     -26.8161      2.00000
     98     -26.8160      2.00000
     99     -26.8097      2.00000
    100     -26.8096      2.00000
    101     -26.7972      2.00000
    102     -26.7970      2.00000
    103     -26.7809      2.00000
    104     -26.7807      2.00000
    105     -26.7690      2.00000
    106     -26.7574      2.00000
    107     -26.7554      2.00000
    108     -26.7429      2.00000
    109       0.3122      2.00000
    110       0.7125      2.00000
    111       1.7995      2.00000
    112       1.8000      2.00000
    113       2.0962      2.00000
    114       2.0966      2.00000
    115       2.6610      2.00000
    116       2.6611      2.00000
    117       2.8450      2.00000
    118       2.8451      2.00000
    119       2.9431      2.00000
    120       3.1011      2.00000
    121       3.1013      2.00000
    122       3.1406      2.00000
    123       3.1408      2.00000
    124       3.2533      2.00000
    125       3.8312      2.00000
    126       3.8319      2.00000
    127       3.8814      2.00000
    128       3.8822      2.00000
    129       3.9692      2.00000
    130       3.9701      2.00000
    131       3.9968      2.00000
    132       3.9977      2.00000
    133       4.0380      2.00000
    134       4.0439      2.00000
    135       4.1866      2.00000
    136       4.1870      2.00000
    137       4.2111      2.00000
    138       4.2322      2.00000
    139       4.2331      2.00000
    140       4.2421      2.00000
    141       4.2571      2.00000
    142       4.2724      2.00000
    143       4.4656      2.00000
    144       4.4923      2.00000
    145       4.5495      2.00000
    146       4.5499      2.00000
    147       4.5785      2.00000
    148       4.5789      2.00000
    149       4.6796      2.00000
    150       4.6829      2.00000
    151       4.7538      2.00000
    152       4.7542      2.00000
    153       4.7824      2.00000
    154       4.7846      2.00000
    155       4.7851      2.00000
    156       4.7985      2.00000
    157       4.7992      2.00000
    158       4.8167      2.00000
    159       4.8797      2.00000
    160       4.8880      2.00000
    161       4.8886      2.00000
    162       4.8953      2.00000
    163       4.9859      2.00000
    164       5.1264      2.00000
    165       5.1854      2.00000
    166       5.1861      2.00000
    167       5.2898      2.00000
    168       5.2910      2.00000
    169       5.3112      2.00000
    170       5.3127      2.00000
    171       5.4301      2.00000
    172       5.4316      2.00000
    173       5.5137      2.00000
    174       5.5145      2.00000
    175       5.6053      2.00000
    176       5.6062      2.00000
    177       5.7938      2.00000
    178       5.8711      2.00000
    179       5.8922      2.00000
    180       6.0155      0.00000
    181       6.0232      0.00000
    182       6.0564      0.00000
    183       6.1085      0.00000
    184       6.1225      0.00000
    185       6.1495      0.00000
    186       6.2412      0.00000
    187       6.2427      0.00000
    188       6.2554      0.00000
    189       6.2558      0.00000
    190       6.2773      0.00000
    191       6.3413      0.00000
    192       6.3418      0.00000
    193       6.3480      0.00000
    194       6.3487      0.00000
    195       6.4117      0.00000
    196       6.4129      0.00000
    197       6.4836      0.00000
    198       6.5424      0.00000
    199       6.5429      0.00000
    200       6.5493      0.00000
    201       6.5497      0.00000
    202       6.6417      0.00000
    203       6.7045      0.00000
    204       6.7052      0.00000
    205       6.7066      0.00000
    206       6.7341      0.00000
    207       6.7703      0.00000
    208       6.7711      0.00000
    209       6.7913      0.00000
    210       6.7921      0.00000
    211       6.8121      0.00000
    212       6.8131      0.00000
    213       6.8933      0.00000
    214       6.9012      0.00000
    215       6.9318      0.00000
    216       6.9432      0.00000


--------------------------------------------------------------------------------------------------------


 soft charge-density along one line, spin component           1
         0         1         2         3         4         5         6         7         8         9
 total charge-density along one line
 
 pseudopotential strength for first ion, spin component:           1
-28.982   0.000  -0.000  12.932  -0.000   0.000   0.001   0.001
  0.000 -29.037   0.000  -0.000  12.973  -0.000   0.000  -0.000
 -0.000   0.000 -28.981   0.000  -0.000  12.932   0.005   0.000
 12.932  -0.000   0.000  -0.821   0.000  -0.000  -0.001  -0.001
 -0.000  12.973  -0.000   0.000  -0.847   0.000  -0.000   0.000
  0.000  -0.000  12.932  -0.000   0.000  -0.821  -0.003  -0.000
  0.001   0.000   0.005  -0.001  -0.000  -0.003  -2.851   0.000
  0.001  -0.000   0.000  -0.001   0.000  -0.000   0.000  -2.879
  0.000   0.001  -0.001  -0.000  -0.001   0.001  -0.000   0.000
  0.000   0.001   0.001  -0.000  -0.001  -0.001  -0.000  -0.000
  0.006  -0.000   0.001  -0.003   0.000  -0.001  -0.000  -0.000
  0.000   0.000   0.001  -0.000  -0.000  -0.001   0.530   0.000
  0.000  -0.000   0.000  -0.000   0.000  -0.000   0.000   0.524
  0.000   0.000  -0.000  -0.000  -0.000   0.000   0.000   0.000
  0.000   0.000   0.000  -0.000  -0.000  -0.000  -0.000  -0.000
  0.001  -0.000   0.000  -0.001   0.000  -0.000  -0.000  -0.000
  0.000  -0.001  -0.001  -0.000   0.000   0.000   0.000  -0.000
 -0.000   0.000   0.000   0.000  -0.000  -0.000  -0.000   0.000
 total augmentation occupancy for first ion, spin component:           1
  1.977  -0.000  -0.000   0.005  -0.000   0.000  -0.000  -0.000  -0.000   0.000  -0.016   0.000   0.000  -0.000   0.000   0.007
 -0.000   1.977   0.000  -0.000   0.002   0.000   0.000   0.000  -0.001  -0.000  -0.000   0.000   0.000   0.000   0.000  -0.000
 -0.000   0.000   1.977   0.000   0.000   0.005  -0.016   0.000   0.000  -0.000  -0.000   0.007   0.000  -0.000   0.000   0.000
  0.005  -0.000   0.000   0.190  -0.000   0.000  -0.001  -0.001  -0.000   0.000  -0.068   0.001   0.001   0.000  -0.000   0.020
 -0.000   0.002   0.000  -0.000   0.171  -0.000   0.000  -0.000  -0.001  -0.000  -0.000  -0.000  -0.000   0.001   0.001   0.000
  0.000   0.000   0.005   0.000  -0.000   0.190  -0.068   0.000   0.001  -0.001  -0.001   0.020  -0.000  -0.000   0.001   0.001
 -0.000   0.000  -0.016  -0.001   0.000  -0.068   0.594   0.000   0.001  -0.000  -0.001  -0.276  -0.000   0.001   0.000   0.001
 -0.000   0.000   0.000  -0.001  -0.000   0.000   0.000   0.480   0.000  -0.001  -0.000  -0.000  -0.247  -0.000   0.001   0.000
 -0.000  -0.001   0.000  -0.000  -0.001   0.001   0.001   0.000   0.647  -0.000  -0.000   0.001  -0.000  -0.291   0.000  -0.000
  0.000  -0.000  -0.000   0.000  -0.000  -0.001  -0.000  -0.001  -0.000   0.482   0.000   0.000   0.001   0.000  -0.248  -0.000
 -0.016  -0.000  -0.000  -0.068  -0.000  -0.001  -0.001  -0.000  -0.000   0.000   0.593   0.001   0.000  -0.000  -0.000  -0.275
  0.000   0.000   0.007   0.001  -0.000   0.020  -0.276  -0.000   0.001   0.000   0.001   0.148   0.000  -0.001  -0.000  -0.001
  0.000   0.000   0.000   0.001  -0.000  -0.000  -0.000  -0.247  -0.000   0.001   0.000   0.000   0.144   0.000  -0.001  -0.000
 -0.000   0.000  -0.000   0.000   0.001  -0.000   0.001  -0.000  -0.291   0.000  -0.000  -0.001   0.000   0.152  -0.000   0.000
  0.000   0.000   0.000  -0.000   0.001   0.001   0.000   0.001   0.000  -0.248  -0.000  -0.000  -0.001  -0.000   0.145   0.000
  0.007  -0.000   0.000   0.020   0.000   0.001   0.001   0.000  -0.000  -0.000  -0.275  -0.001  -0.000   0.000   0.000   0.148
 -0.000  -0.001  -0.001  -0.001  -0.002  -0.000   0.001   0.000   0.051  -0.000   0.001  -0.000  -0.000  -0.026   0.000  -0.000
  0.000  -0.001  -0.001  -0.000   0.000   0.000  -0.000  -0.000   0.014   0.000  -0.000   0.000   0.000  -0.006  -0.000   0.000


------------------------ aborting loop because EDIFF is reached ----------------------------------------




--------------------------------------------------------------------------------------------------------


    CHARGE:  VPU time   17.64: CPU time   17.64
    FORLOC:  VPU time    0.08: CPU time    0.08
    FORNL :  VPU time  176.53: CPU time  176.48
    STRESS:  VPU time  301.34: CPU time  301.29
    FORCOR:  VPU time    0.26: CPU time    0.26
    FORHAR:  VPU time    0.09: CPU time    0.09
    MIXING:  VPU time    0.02: CPU time    0.02


--------------------------------------------------------------------------------------------------------



  FREE ENERGIE OF THE ION-ELECTRON SYSTEM (eV)
  ---------------------------------------------------
  free  energy   TOTEN  =      -284.015688 eV

  energy  without entropy=     -284.013638  energy(sigma->0) =     -284.014663
 

  FORCE on cell =-STRESS in cart. coord.  units (eV/reduce length):
  Direction    X        Y        Z        XY       YZ       ZX
  --------------------------------------------------------------------------------------
  Alpha Z   2270.51   2270.51   2270.51
  Ewald    -9811.76  -9823.63  -9307.51     -9.78      0.00     -0.01
  Hartree   2283.07   2277.52   2495.13     -4.56      0.00     -0.01
  E(xc)    -1695.89  -1695.89  -1695.39     -0.00      0.00     -0.00
  Local     2619.51   2636.89   1965.09     14.33     -0.00      0.02
  n-local   -862.36   -862.16   -845.92      0.18      0.00     -0.00
  augment   1839.66   1839.35   1811.91     -0.27      0.00     -0.00
  Kinetic   3357.96   3357.16   3311.16     -0.69      0.00     -0.00
  -------------------------------------------------------------------------------------
  Total        0.71     -0.24      4.99     -0.81      0.00     -0.00
  in kB        1.83     -0.62     12.85     -2.07      0.00     -0.00
  external pressure =        4.69 kB  Pullay stress =        0.00 kB


 VOLUME and BASIS-vectors are now :
 -----------------------------------------------------------------------------
  energy-cutoff  :      500.00
  volume of cell :      622.41
      direct lattice vectors                 reciprocal lattice vectors
     8.820667100  0.024765440  0.000000000     0.113187820  0.064925977  0.000000000
    -4.388885871  7.651304610  0.000000000    -0.000366362  0.130486516  0.000000000
     0.000000000  0.000000000  9.207474465     0.000000000  0.000000000  0.108607415

  length of vectors
     8.820701866  8.820701867  9.207474465     0.130487030  0.130487030  0.108607415


 FORCES acting on ions
    electron-ion (+dipol)            ewald-force                    non-local-force                 convergence-correction
 -----------------------------------------------------------------------------------------------
   -.208E+01 -.977E-01 -.254E+01   0.216E+01 0.738E-01 0.260E+01   -.371E-01 0.237E-01 -.816E-02   -.314E-04 0.685E-05 -.142E-04
   0.106E+01 -.846E-01 -.397E+00   -.102E+01 0.667E-01 0.394E+00   -.471E-01 0.224E-01 0.101E-02   0.143E-04 0.538E-05 0.101E-04
   0.106E+01 -.953E-01 -.402E+00   -.102E+01 0.667E-01 0.399E+00   -.473E-01 0.250E-01 0.117E-02   0.172E-04 -.134E-05 0.302E-05
   0.138E+00 -.615E+00 -.401E+00   -.979E-01 0.596E+00 0.398E+00   -.441E-01 0.277E-01 0.117E-02   -.237E-06 -.403E-05 0.515E-05
   0.151E+00 0.428E+00 -.392E+00   -.110E+00 -.455E+00 0.389E+00   -.444E-01 0.194E-01 0.114E-02   -.956E-05 0.966E-05 0.527E-05
   0.328E+00 -.936E-01 -.139E+00   -.289E+00 0.702E-01 0.142E+00   -.415E-01 0.236E-01 -.337E-02   0.984E-05 0.291E-05 0.199E-04
   0.139E+00 -.622E+00 -.398E+00   -.102E+00 0.598E+00 0.395E+00   -.413E-01 0.252E-01 0.102E-02   -.102E-05 -.217E-04 0.963E-05
   0.328E+00 -.924E-01 -.141E+00   -.289E+00 0.691E-01 0.142E+00   -.409E-01 0.240E-01 -.110E-02   0.703E-05 -.845E-05 0.120E-04
   0.144E+00 0.432E+00 -.394E+00   -.106E+00 -.453E+00 0.392E+00   -.413E-01 0.225E-01 0.116E-02   -.581E-05 0.105E-04 0.274E-05
   0.420E-01 -.932E-01 0.448E+00   0.119E-02 0.700E-01 -.464E+00   -.411E-01 0.239E-01 0.228E-02   -.123E-04 0.755E-05 0.143E-04
   0.219E+00 -.942E-01 0.197E+00   -.179E+00 0.691E-01 -.198E+00   -.411E-01 0.246E-01 0.115E-02   0.644E-05 0.486E-05 -.995E-05
   0.219E+00 -.907E-01 0.199E+00   -.180E+00 0.691E-01 -.200E+00   -.411E-01 0.228E-01 0.115E-02   0.607E-05 0.165E-05 -.285E-05
   0.138E+00 -.141E+00 0.198E+00   -.979E-01 0.116E+00 -.199E+00   -.410E-01 0.243E-01 0.114E-02   0.186E-05 0.554E-05 -.501E-05
   0.140E+00 -.455E-01 0.196E+00   -.996E-01 0.232E-01 -.197E+00   -.410E-01 0.229E-01 0.127E-02   -.528E-05 0.111E-05 -.513E-05
   0.206E+00 -.927E-01 0.123E+00   -.164E+00 0.694E-01 -.119E+00   -.421E-01 0.237E-01 -.238E-02   0.347E-05 0.236E-05 -.199E-04
   0.138E+00 -.137E+00 0.198E+00   -.979E-01 0.116E+00 -.199E+00   -.412E-01 0.233E-01 0.115E-02   0.548E-05 -.162E-04 -.946E-05
   0.205E+00 -.925E-01 0.119E+00   -.164E+00 0.691E-01 -.119E+00   -.414E-01 0.241E-01 0.113E-02   -.550E-05 -.861E-05 -.120E-04
   0.140E+00 -.483E-01 0.197E+00   -.996E-01 0.228E-01 -.198E+00   -.412E-01 0.245E-01 0.127E-02   0.234E-06 0.134E-05 -.263E-05
   0.331E+00 -.398E+00 0.987E+00   -.381E+00 0.428E+00 -.989E+00   0.386E-01 -.228E-01 -.989E-02   0.398E-05 -.926E-05 0.505E-05
   0.569E-01 0.743E-01 0.176E-01   -.982E-01 -.508E-01 -.179E-01   0.422E-01 -.243E-01 0.437E-03   0.995E-05 -.335E-05 -.231E-05
   -.710E+00 -.189E-01 -.616E-02   0.672E+00 0.432E-01 0.373E-02   0.423E-01 -.231E-01 0.377E-02   -.141E-04 -.177E-05 -.115E-04
   -.516E+00 0.697E+00 0.501E+00   0.476E+00 -.680E+00 -.504E+00   0.406E-01 -.252E-01 -.286E-02   -.141E-04 0.182E-04 -.281E-05
   0.119E+00 0.287E+00 0.170E+00   -.162E+00 -.265E+00 -.175E+00   0.457E-01 -.216E-01 0.654E-02   0.147E-04 0.142E-04 0.454E-05
   -.156E+00 0.544E-01 -.839E-01   0.114E+00 -.300E-01 0.852E-01   0.439E-01 -.242E-01 -.196E-02   -.119E-05 0.108E-04 -.772E-05
   -.117E+00 -.568E-02 0.337E-01   0.769E-01 0.294E-01 -.350E-01   0.413E-01 -.244E-01 0.151E-02   0.172E-05 -.134E-04 -.214E-06
   -.148E+00 0.212E+00 0.327E-02   0.108E+00 -.189E+00 -.275E-02   0.407E-01 -.232E-01 -.328E-03   -.342E-05 0.195E-05 -.464E-05
   -.219E+00 -.638E-01 0.437E-01   0.179E+00 0.872E-01 -.455E-01   0.425E-01 -.247E-01 0.214E-02   0.133E-05 -.165E-04 -.202E-05
   -.705E+00 0.197E+00 -.158E-01   0.667E+00 -.175E+00 0.140E-01   0.419E-01 -.247E-01 0.363E-02   -.196E-04 0.204E-05 -.522E-05
   0.595E-01 0.114E+00 0.185E-01   -.101E+00 -.908E-01 -.189E-01   0.421E-01 -.241E-01 0.579E-03   0.196E-04 -.731E-05 0.227E-05
   0.328E+00 0.596E+00 0.100E+01   -.379E+00 -.579E+00 -.100E+01   0.399E-01 -.246E-01 -.946E-02   -.535E-06 0.875E-05 0.114E-04
   -.532E+00 -.506E+00 0.486E+00   0.492E+00 0.537E+00 -.489E+00   0.408E-01 -.222E-01 -.296E-02   -.183E-04 -.170E-05 0.262E-05
   -.149E+00 0.131E+00 -.824E-01   0.106E+00 -.109E+00 0.840E-01   0.436E-01 -.229E-01 -.220E-02   -.516E-05 0.733E-05 -.463E-05
   0.125E+00 -.108E+00 0.177E+00   -.167E+00 0.133E+00 -.182E+00   0.457E-01 -.253E-01 0.589E-02   0.231E-04 -.538E-05 0.757E-05
   -.151E+00 -.272E-01 0.239E-02   0.111E+00 0.509E-01 -.169E-02   0.411E-01 -.244E-01 -.511E-03   0.801E-05 -.168E-04 0.206E-06
   -.116E+00 0.194E+00 0.319E-01   0.749E-01 -.171E+00 -.332E-01   0.410E-01 -.233E-01 0.151E-02   -.424E-05 0.629E-05 0.450E-05
   -.219E+00 0.248E+00 0.445E-01   0.178E+00 -.225E+00 -.461E-01   0.426E-01 -.223E-01 0.219E-02   -.434E-05 0.738E-05 0.193E-05
 -----------------------------------------------------------------------------------------------
   0.329E-04 -.112E-03 0.812E-07   -.147E-12 0.651E-12 -.106E-12   0.221E-04 0.190E-03 0.227E-03   -.175E-05 0.886E-06 0.428E-07
 
 
 POSITION                                       TOTAL-FORCE (eV/Angst)
 -----------------------------------------------------------------------------------
     -0.00701      1.70583      1.14371         0.043718     -0.000308      0.049907
      2.94013      1.71410      1.15093        -0.009965      0.004508     -0.001628
      5.88035      1.72236      1.15093        -0.010094     -0.003628     -0.001625
     -1.46305      4.25628      1.15093        -0.003730      0.007854     -0.001636
      1.47717      4.26454      1.15093        -0.003468     -0.007278     -0.001368
      4.41739      4.27279      1.15093        -0.002598      0.000288     -0.000772
     -2.92602      6.80672      1.15093        -0.003811      0.000288     -0.001642
      0.01421      6.81497      1.15093        -0.002344      0.000620     -0.000772
      2.95443      6.82323      1.15093        -0.003617      0.001186     -0.001363
     -0.00009      1.70585      5.75467         0.002002      0.000645     -0.013282
      2.94013      1.71410      5.75467        -0.002015     -0.000518      0.000189
      5.88035      1.72236      5.75467        -0.002003      0.001228      0.000200
     -1.46305      4.25628      5.75467        -0.001022     -0.000257      0.000191
      1.47717      4.26454      5.75467        -0.000981      0.000510      0.000330
      4.41739      4.27279      5.75467        -0.000052      0.000368      0.000994
     -2.92602      6.80672      5.75467        -0.001125      0.002063      0.000187
      0.01421      6.81497      5.75467         0.000206      0.000718      0.000993
      2.95443      6.82323      5.75467        -0.001091     -0.001059      0.000333
      1.47735      0.85284      3.45280        -0.011408      0.006433     -0.011985
      4.41757      0.86110      3.45280         0.000878     -0.000826      0.000191
      7.35780      0.86935      3.45280         0.003399      0.001081      0.001332
      0.01439      3.40328      3.45280         0.000595     -0.008582     -0.005566
      2.95461      3.41153      3.45280         0.003004      0.000620      0.001516
      5.89483      3.41979      3.45280         0.001583      0.000189     -0.000736
     -1.44857      5.95371      3.45280         0.000735     -0.000732      0.000142
      1.49165      5.96197      3.45280         0.000208     -0.000258      0.000186
      4.43187      5.97022      3.45280         0.001963     -0.001448      0.000416
      1.47735      0.85284      8.05654         0.003064     -0.001895      0.001810
      4.41757      0.86110      8.05654         0.000822     -0.000884      0.000143
      7.35780      0.86935      8.05654        -0.011294     -0.007526     -0.012820
      0.01439      3.40328      8.05654         0.000722      0.008272     -0.005634
      2.95461      3.41153      8.05654         0.000797     -0.000767     -0.000601
      5.89483      3.41979      8.05654         0.003866     -0.001129      0.001453
     -1.44857      5.95371      8.05654         0.000770     -0.000660      0.000191
      1.49165      5.96197      8.05654         0.000226     -0.000276      0.000223
      4.43187      5.97022      8.05654         0.002056      0.001161      0.000503
 -----------------------------------------------------------------------------------
    total drift:                                0.000053      0.000078      0.000227


--------------------------------------------------------------------------------------------------------



 mean value of Nose-termostat <S>:     1.000 mean value of <T> :     0.000
 mean temperature <T/S>/<1/S>  :     0.000

     LOOP+:  VPU time16469.94: CPU time17185.02
  
  
 General timing and accounting informations for this job:
 ========================================================
  
                  Total CPU time used (sec):    16734.558
                            User time (sec):    15265.084
                          System time (sec):     1469.474
                         Elapsed time (sec):    17677.112
  
                   Maximum memory used (kb):     7519636.
                   Average memory used (kb):           0.
  
                          Minor page faults:      3120911
                          Major page faults:        41175
                 Voluntary context switches:        73453
