<?xml version="1.0" encoding="ISO-8859-1"?>
<modeling>
 <generator>
  <i name="program" type="string">vasp</i>
  <i name="version" type="string">4.6.28 </i>
  <i name="subversion" type="string">25Jul05 complex  parallel</i>
  <i name="platform" type="string">LinuxIFC</i>
  <i name="date" type="string">2016 11 16</i>
  <i name="time" type="string">12:11:50</i>
 </generator>
 <incar>
  <i type="string" name="PREC">accurate</i>
  <i type="int" name="IALGO">    38</i>
  <i name="EDIFF">      0.00000001</i>
  <i type="int" name="IBRION">    -1</i>
  <i name="ENCUT">    500.00000000</i>
  <i type="logical" name="LREAL"> F  </i>
  <i type="int" name="ISMEAR">     0</i>
  <i name="SIGMA">      0.01000000</i>
  <i type="logical" name="LWAVE"> F  </i>
  <i type="logical" name="LCHARG"> F  </i>
 </incar>
 <kpoints>
  <generation param="Auto">
   <i name="subdivisionlength">     50.00000000</i>
   <v type="int" name="divisions">       7       7       5</v>
   <v name="usershift">      0.00000000      0.00000000      0.00000000</v>
   <v name="genvec1">      0.14285714     -0.00000000      0.00000000</v>
   <v name="genvec2">      0.00000000      0.14285714      0.00000000</v>
   <v name="genvec3">      0.00000000      0.00000000      0.20000000</v>
   <v name="shift">      0.00000000      0.00000000      0.00000000</v>
  </generation>
  <varray name="kpointlist" >
   <v>       0.00000000      0.00000000      0.00000000</v>
   <v>       0.14285714     -0.00000000      0.00000000</v>
   <v>       0.28571429     -0.00000000      0.00000000</v>
   <v>       0.42857143      0.00000000      0.00000000</v>
   <v>      -0.00000000      0.14285714      0.00000000</v>
   <v>       0.14285714      0.14285714      0.00000000</v>
   <v>       0.28571429      0.14285714      0.00000000</v>
   <v>       0.42857143      0.14285714      0.00000000</v>
   <v>      -0.42857143      0.14285714      0.00000000</v>
   <v>      -0.28571429      0.14285714      0.00000000</v>
   <v>      -0.14285714      0.14285714      0.00000000</v>
   <v>      -0.00000000      0.28571429      0.00000000</v>
   <v>       0.14285714      0.28571429      0.00000000</v>
   <v>       0.28571429      0.28571429      0.00000000</v>
   <v>       0.42857143      0.28571429      0.00000000</v>
   <v>      -0.42857143      0.28571429      0.00000000</v>
   <v>      -0.28571429      0.28571429      0.00000000</v>
   <v>      -0.14285714      0.28571429      0.00000000</v>
   <v>       0.00000000      0.42857143      0.00000000</v>
   <v>       0.14285714      0.42857143      0.00000000</v>
   <v>       0.28571429      0.42857143      0.00000000</v>
   <v>       0.42857143      0.42857143      0.00000000</v>
   <v>      -0.42857143      0.42857143      0.00000000</v>
   <v>      -0.28571429      0.42857143      0.00000000</v>
   <v>      -0.14285714      0.42857143      0.00000000</v>
   <v>       0.00000000      0.00000000      0.20000000</v>
   <v>       0.14285714     -0.00000000      0.20000000</v>
   <v>       0.28571429     -0.00000000      0.20000000</v>
   <v>       0.42857143      0.00000000      0.20000000</v>
   <v>      -0.42857143      0.00000000      0.20000000</v>
   <v>      -0.28571429      0.00000000      0.20000000</v>
   <v>      -0.14285714      0.00000000      0.20000000</v>
   <v>      -0.00000000      0.14285714      0.20000000</v>
   <v>       0.14285714      0.14285714      0.20000000</v>
   <v>       0.28571429      0.14285714      0.20000000</v>
   <v>       0.42857143      0.14285714      0.20000000</v>
   <v>      -0.42857143      0.14285714      0.20000000</v>
   <v>      -0.28571429      0.14285714      0.20000000</v>
   <v>      -0.14285714      0.14285714      0.20000000</v>
   <v>      -0.00000000      0.28571429      0.20000000</v>
   <v>       0.14285714      0.28571429      0.20000000</v>
   <v>       0.28571429      0.28571429      0.20000000</v>
   <v>       0.42857143      0.28571429      0.20000000</v>
   <v>      -0.42857143      0.28571429      0.20000000</v>
   <v>      -0.28571429      0.28571429      0.20000000</v>
   <v>      -0.14285714      0.28571429      0.20000000</v>
   <v>       0.00000000      0.42857143      0.20000000</v>
   <v>       0.14285714      0.42857143      0.20000000</v>
   <v>       0.28571429      0.42857143      0.20000000</v>
   <v>       0.42857143      0.42857143      0.20000000</v>
   <v>      -0.42857143      0.42857143      0.20000000</v>
   <v>      -0.28571429      0.42857143      0.20000000</v>
   <v>      -0.14285714      0.42857143      0.20000000</v>
   <v>       0.00000000     -0.42857143      0.20000000</v>
   <v>       0.14285714     -0.42857143      0.20000000</v>
   <v>       0.28571429     -0.42857143      0.20000000</v>
   <v>       0.42857143     -0.42857143      0.20000000</v>
   <v>      -0.42857143     -0.42857143      0.20000000</v>
   <v>      -0.28571429     -0.42857143      0.20000000</v>
   <v>      -0.14285714     -0.42857143      0.20000000</v>
   <v>       0.00000000     -0.28571429      0.20000000</v>
   <v>       0.14285714     -0.28571429      0.20000000</v>
   <v>       0.28571429     -0.28571429      0.20000000</v>
   <v>       0.42857143     -0.28571429      0.20000000</v>
   <v>      -0.42857143     -0.28571429      0.20000000</v>
   <v>      -0.28571429     -0.28571429      0.20000000</v>
   <v>      -0.14285714     -0.28571429      0.20000000</v>
   <v>       0.00000000     -0.14285714      0.20000000</v>
   <v>       0.14285714     -0.14285714      0.20000000</v>
   <v>       0.28571429     -0.14285714      0.20000000</v>
   <v>       0.42857143     -0.14285714      0.20000000</v>
   <v>      -0.42857143     -0.14285714      0.20000000</v>
   <v>      -0.28571429     -0.14285714      0.20000000</v>
   <v>      -0.14285714     -0.14285714      0.20000000</v>
   <v>       0.00000000      0.00000000      0.40000000</v>
   <v>       0.14285714     -0.00000000      0.40000000</v>
   <v>       0.28571429     -0.00000000      0.40000000</v>
   <v>       0.42857143      0.00000000      0.40000000</v>
   <v>      -0.42857143      0.00000000      0.40000000</v>
   <v>      -0.28571429      0.00000000      0.40000000</v>
   <v>      -0.14285714      0.00000000      0.40000000</v>
   <v>      -0.00000000      0.14285714      0.40000000</v>
   <v>       0.14285714      0.14285714      0.40000000</v>
   <v>       0.28571429      0.14285714      0.40000000</v>
   <v>       0.42857143      0.14285714      0.40000000</v>
   <v>      -0.42857143      0.14285714      0.40000000</v>
   <v>      -0.28571429      0.14285714      0.40000000</v>
   <v>      -0.14285714      0.14285714      0.40000000</v>
   <v>      -0.00000000      0.28571429      0.40000000</v>
   <v>       0.14285714      0.28571429      0.40000000</v>
   <v>       0.28571429      0.28571429      0.40000000</v>
   <v>       0.42857143      0.28571429      0.40000000</v>
   <v>      -0.42857143      0.28571429      0.40000000</v>
   <v>      -0.28571429      0.28571429      0.40000000</v>
   <v>      -0.14285714      0.28571429      0.40000000</v>
   <v>       0.00000000      0.42857143      0.40000000</v>
   <v>       0.14285714      0.42857143      0.40000000</v>
   <v>       0.28571429      0.42857143      0.40000000</v>
   <v>       0.42857143      0.42857143      0.40000000</v>
   <v>      -0.42857143      0.42857143      0.40000000</v>
   <v>      -0.28571429      0.42857143      0.40000000</v>
   <v>      -0.14285714      0.42857143      0.40000000</v>
   <v>       0.00000000     -0.42857143      0.40000000</v>
   <v>       0.14285714     -0.42857143      0.40000000</v>
   <v>       0.28571429     -0.42857143      0.40000000</v>
   <v>       0.42857143     -0.42857143      0.40000000</v>
   <v>      -0.42857143     -0.42857143      0.40000000</v>
   <v>      -0.28571429     -0.42857143      0.40000000</v>
   <v>      -0.14285714     -0.42857143      0.40000000</v>
   <v>       0.00000000     -0.28571429      0.40000000</v>
   <v>       0.14285714     -0.28571429      0.40000000</v>
   <v>       0.28571429     -0.28571429      0.40000000</v>
   <v>       0.42857143     -0.28571429      0.40000000</v>
   <v>      -0.42857143     -0.28571429      0.40000000</v>
   <v>      -0.28571429     -0.28571429      0.40000000</v>
   <v>      -0.14285714     -0.28571429      0.40000000</v>
   <v>       0.00000000     -0.14285714      0.40000000</v>
   <v>       0.14285714     -0.14285714      0.40000000</v>
   <v>       0.28571429     -0.14285714      0.40000000</v>
   <v>       0.42857143     -0.14285714      0.40000000</v>
   <v>      -0.42857143     -0.14285714      0.40000000</v>
   <v>      -0.28571429     -0.14285714      0.40000000</v>
   <v>      -0.14285714     -0.14285714      0.40000000</v>
  </varray>
  <varray name="weights" >
   <v>       0.00408163</v>
   <v>       0.00816327</v>
   <v>       0.00816327</v>
   <v>       0.00816327</v>
   <v>       0.00816327</v>
   <v>       0.00816327</v>
   <v>       0.00816327</v>
   <v>       0.00816327</v>
   <v>       0.00816327</v>
   <v>       0.00816327</v>
   <v>       0.00816327</v>
   <v>       0.00816327</v>
   <v>       0.00816327</v>
   <v>       0.00816327</v>
   <v>       0.00816327</v>
   <v>       0.00816327</v>
   <v>       0.00816327</v>
   <v>       0.00816327</v>
   <v>       0.00816327</v>
   <v>       0.00816327</v>
   <v>       0.00816327</v>
   <v>       0.00816327</v>
   <v>       0.00816327</v>
   <v>       0.00816327</v>
   <v>       0.00816327</v>
   <v>       0.00816327</v>
   <v>       0.00816327</v>
   <v>       0.00816327</v>
   <v>       0.00816327</v>
   <v>       0.00816327</v>
   <v>       0.00816327</v>
   <v>       0.00816327</v>
   <v>       0.00816327</v>
   <v>       0.00816327</v>
   <v>       0.00816327</v>
   <v>       0.00816327</v>
   <v>       0.00816327</v>
   <v>       0.00816327</v>
   <v>       0.00816327</v>
   <v>       0.00816327</v>
   <v>       0.00816327</v>
   <v>       0.00816327</v>
   <v>       0.00816327</v>
   <v>       0.00816327</v>
   <v>       0.00816327</v>
   <v>       0.00816327</v>
   <v>       0.00816327</v>
   <v>       0.00816327</v>
   <v>       0.00816327</v>
   <v>       0.00816327</v>
   <v>       0.00816327</v>
   <v>       0.00816327</v>
   <v>       0.00816327</v>
   <v>       0.00816327</v>
   <v>       0.00816327</v>
   <v>       0.00816327</v>
   <v>       0.00816327</v>
   <v>       0.00816327</v>
   <v>       0.00816327</v>
   <v>       0.00816327</v>
   <v>       0.00816327</v>
   <v>       0.00816327</v>
   <v>       0.00816327</v>
   <v>       0.00816327</v>
   <v>       0.00816327</v>
   <v>       0.00816327</v>
   <v>       0.00816327</v>
   <v>       0.00816327</v>
   <v>       0.00816327</v>
   <v>       0.00816327</v>
   <v>       0.00816327</v>
   <v>       0.00816327</v>
   <v>       0.00816327</v>
   <v>       0.00816327</v>
   <v>       0.00816327</v>
   <v>       0.00816327</v>
   <v>       0.00816327</v>
   <v>       0.00816327</v>
   <v>       0.00816327</v>
   <v>       0.00816327</v>
   <v>       0.00816327</v>
   <v>       0.00816327</v>
   <v>       0.00816327</v>
   <v>       0.00816327</v>
   <v>       0.00816327</v>
   <v>       0.00816327</v>
   <v>       0.00816327</v>
   <v>       0.00816327</v>
   <v>       0.00816327</v>
   <v>       0.00816327</v>
   <v>       0.00816327</v>
   <v>       0.00816327</v>
   <v>       0.00816327</v>
   <v>       0.00816327</v>
   <v>       0.00816327</v>
   <v>       0.00816327</v>
   <v>       0.00816327</v>
   <v>       0.00816327</v>
   <v>       0.00816327</v>
   <v>       0.00816327</v>
   <v>       0.00816327</v>
   <v>       0.00816327</v>
   <v>       0.00816327</v>
   <v>       0.00816327</v>
   <v>       0.00816327</v>
   <v>       0.00816327</v>
   <v>       0.00816327</v>
   <v>       0.00816327</v>
   <v>       0.00816327</v>
   <v>       0.00816327</v>
   <v>       0.00816327</v>
   <v>       0.00816327</v>
   <v>       0.00816327</v>
   <v>       0.00816327</v>
   <v>       0.00816327</v>
   <v>       0.00816327</v>
   <v>       0.00816327</v>
   <v>       0.00816327</v>
   <v>       0.00816327</v>
   <v>       0.00816327</v>
   <v>       0.00816327</v>
   <v>       0.00816327</v>
   <v>       0.00816327</v>
  </varray>
 </kpoints>
 <parameters>
  <separator name="general" >
   <i type="string" name="SYSTEM">unknown system</i>
   <i type="logical" name="LCOMPAT"> F  </i>
  </separator>
  <separator name="electronic" >
   <i type="string" name="PREC">accura</i>
   <i name="ENMAX">    500.00000000</i>
   <i name="ENAUG">    482.84800000</i>
   <i name="EDIFF">      0.00000001</i>
   <i type="int" name="IALGO">    38</i>
   <i type="int" name="IWAVPR">    10</i>
   <i type="int" name="NBANDS">   216</i>
   <i name="NELECT">    360.00000000</i>
   <separator name="electronic smearing" >
    <i type="int" name="ISMEAR">     0</i>
    <i name="SIGMA">      0.01000000</i>
   </separator>
   <separator name="electronic projectors" >
    <i type="logical" name="LREAL"> F  </i>
    <v name="ROPT">      0.00000000</v>
    <i type="int" name="LMAXPAW">  -100</i>
    <i type="int" name="LMAXMIX">     2</i>
   </separator>
   <separator name="electronic startup" >
    <i type="int" name="ISTART">     0</i>
    <i type="int" name="ICHARG">     2</i>
    <i type="int" name="INIWAV">     1</i>
   </separator>
   <separator name="electronic spin" >
    <i type="int" name="ISPIN">     1</i>
    <i type="logical" name="LNONCOLLINEAR"> F  </i>
    <v name="MAGMOM">      1.00000000      1.00000000      1.00000000      1.00000000      1.00000000      1.00000000      1.00000000      1.00000000      1.00000000      1.00000000      1.00000000      1.00000000      1.00000000      1.00000000      1.00000000      1.00000000      1.00000000      1.00000000      1.00000000      1.00000000
      1.00000000      1.00000000      1.00000000      1.00000000      1.00000000      1.00000000      1.00000000      1.00000000      1.00000000      1.00000000      1.00000000      1.00000000      1.00000000      1.00000000      1.00000000      1.00000000</v>
    <i name="NUPDOWN">     -1.00000000</i>
    <i type="logical" name="LSORBIT"> F  </i>
    <v name="SAXIS">      0.00000000      0.00000000      1.00000000</v>
    <i type="logical" name="LSPIRAL"> F  </i>
    <v name="QSPIRAL">      0.00000000      0.00000000      0.00000000</v>
    <i type="logical" name="LZEROZ"> F  </i>
   </separator>
   <separator name="electronic exchange-correlation" >
    <i type="string" name="GGA">--</i>
    <i type="int" name="VOSKOWN">     0</i>
    <i type="logical" name="LASPH"> F  </i>
    <i type="logical" name="LMETAGGA"> F  </i>
    <i type="string" name="GGA2">--</i>
   </separator>
   <separator name="electronic convergence" >
    <i type="int" name="NELM">    60</i>
    <i type="int" name="NELMDL">     0</i>
    <i type="int" name="NELMIN">     2</i>
    <i name="ENINI">    500.00000000</i>
    <separator name="electronic convergence detail" >
     <i type="logical" name="LDIAG"> T  </i>
     <i name="WEIMIN">      0.00000000</i>
     <i name="EBREAK">      0.00000000</i>
     <i name="DEPER">      0.30000000</i>
     <i type="int" name="NRMM">     4</i>
     <i name="TIME">      0.10000000</i>
    </separator>
   </separator>
   <separator name="electronic mixer" >
    <i name="AMIX">      0.40000000</i>
    <i name="BMIX">      1.00000000</i>
    <i name="AMIN">      0.10000000</i>
    <i name="AMIX_MAG">      1.60000000</i>
    <i name="BMIX_MAG">      1.00000000</i>
    <separator name="electronic mixer details" >
     <i type="int" name="IMIX">     4</i>
     <i type="int" name="MAXMIX">   -45</i>
     <i name="WC">    100.00000000</i>
     <i type="int" name="INIMIX">     1</i>
     <i type="int" name="MIXPRE">     1</i>
     <i type="int" name="MREMOVE">     5</i>
    </separator>
   </separator>
   <separator name="electronic dipolcorrection" >
    <i type="int" name="IDIPOL">     0</i>
    <i type="logical" name="LDIPOL"> F  </i>
    <v name="DIPOL">   -100.00000000</v>
    <i name="EFIELD">      0.00000000</i>
   </separator>
  </separator>
  <separator name="grids" >
   <i type="int" name="NGX">    64</i>
   <i type="int" name="NGY">    64</i>
   <i type="int" name="NGZ">    70</i>
   <i type="int" name="NGXF">   128</i>
   <i type="int" name="NGYF">   128</i>
   <i type="int" name="NGZF">   140</i>
   <i type="logical" name="ADDGRID"> F  </i>
  </separator>
  <separator name="ionic" >
   <i type="int" name="NSW">     0</i>
   <i type="int" name="IBRION">    -1</i>
   <i type="int" name="ISIF">     2</i>
   <i name="PSTRESS">      0.00000000</i>
   <i name="EDIFFG">      0.00000010</i>
   <i type="int" name="NFREE">     0</i>
   <i name="POTIM">      0.50000000</i>
   <i name="SMASS">     -3.00000000</i>
  </separator>
  <separator name="ionic md" >
   <i name="TEBEG">      0.00010000</i>
   <i name="TEEND">      0.00010000</i>
   <i type="int" name="NBLOCK">     1</i>
   <i type="int" name="KBLOCK">     1</i>
   <i type="int" name="NPACO">   256</i>
   <i name="APACO">     16.00000000</i>
  </separator>
  <separator name="symmetry" >
   <i type="int" name="ISYM">     2</i>
   <i name="SYMPREC">      0.00001000</i>
  </separator>
  <separator name="dos" >
   <i type="logical" name="LORBIT"> F  </i>
   <v name="RWIGS">     -1.00000000</v>
   <i type="int" name="NEDOS">   301</i>
   <i name="EMIN">     10.00000000</i>
   <i name="EMAX">    -10.00000000</i>
  </separator>
  <separator name="writing" >
   <i type="int" name="NWRITE">     2</i>
   <i type="logical" name="LWAVE"> F  </i>
   <i type="logical" name="LCHARG"> F  </i>
   <i type="logical" name="LPARD"> F  </i>
   <i type="logical" name="LVTOT"> F  </i>
   <i type="logical" name="LELF"> F  </i>
   <i type="logical" name="LOPTICS"> F  </i>
   <i name="STM">      0.00000000</i>
  </separator>
  <separator name="performance" >
   <i type="int" name="NPAR">     8</i>
   <i type="int" name="NSIM">     4</i>
   <i type="int" name="NBLK">   256</i>
   <i type="logical" name="LPLANE"> T  </i>
   <i type="logical" name="LCRITICAL_MEM"> F  </i>
   <i type="logical" name="LSCALAPACK"> F  </i>
   <i type="logical" name="LSCALU"> F  </i>
   <i type="logical" name="LASYNC"> F  </i>
  </separator>
  <separator name="miscellaneous" >
   <i type="int" name="IDIOT">     3</i>
   <i type="logical" name="LMUSIC"> F  </i>
   <v name="POMASS">     47.88000000</v>
   <i type="logical" name="LCORR"> T  </i>
  </separator>
  <i type="logical" name="LREAL_COMPAT"> F  </i>
  <i type="logical" name="GGA_COMPAT"> T  </i>
  <i type="logical" name="LBERRY"> F  </i>
  <i type="int" name="ICORELEVEL">     0</i>
  <i type="logical" name="LDAU"> F  </i>
  <i type="int" name="I_CONSTRAINED_M">     0</i>
 </parameters>
 <atominfo>
  <atoms>      36</atoms>
  <types>       1</types>
  <array name="atoms" >
   <dimension dim="1">ion</dimension>
   <field type="string">element</field>
   <field type="int">atomtype</field>
   <set>
    <rc><c>Ti</c><c>   1</c></rc>
    <rc><c>Ti</c><c>   1</c></rc>
    <rc><c>Ti</c><c>   1</c></rc>
    <rc><c>Ti</c><c>   1</c></rc>
    <rc><c>Ti</c><c>   1</c></rc>
    <rc><c>Ti</c><c>   1</c></rc>
    <rc><c>Ti</c><c>   1</c></rc>
    <rc><c>Ti</c><c>   1</c></rc>
    <rc><c>Ti</c><c>   1</c></rc>
    <rc><c>Ti</c><c>   1</c></rc>
    <rc><c>Ti</c><c>   1</c></rc>
    <rc><c>Ti</c><c>   1</c></rc>
    <rc><c>Ti</c><c>   1</c></rc>
    <rc><c>Ti</c><c>   1</c></rc>
    <rc><c>Ti</c><c>   1</c></rc>
    <rc><c>Ti</c><c>   1</c></rc>
    <rc><c>Ti</c><c>   1</c></rc>
    <rc><c>Ti</c><c>   1</c></rc>
    <rc><c>Ti</c><c>   1</c></rc>
    <rc><c>Ti</c><c>   1</c></rc>
    <rc><c>Ti</c><c>   1</c></rc>
    <rc><c>Ti</c><c>   1</c></rc>
    <rc><c>Ti</c><c>   1</c></rc>
    <rc><c>Ti</c><c>   1</c></rc>
    <rc><c>Ti</c><c>   1</c></rc>
    <rc><c>Ti</c><c>   1</c></rc>
    <rc><c>Ti</c><c>   1</c></rc>
    <rc><c>Ti</c><c>   1</c></rc>
    <rc><c>Ti</c><c>   1</c></rc>
    <rc><c>Ti</c><c>   1</c></rc>
    <rc><c>Ti</c><c>   1</c></rc>
    <rc><c>Ti</c><c>   1</c></rc>
    <rc><c>Ti</c><c>   1</c></rc>
    <rc><c>Ti</c><c>   1</c></rc>
    <rc><c>Ti</c><c>   1</c></rc>
    <rc><c>Ti</c><c>   1</c></rc>
   </set>
  </array>
  <array name="atomtypes" >
   <dimension dim="1">type</dimension>
   <field type="int">atomspertype</field>
   <field type="string">element</field>
   <field>mass</field>
   <field>valence</field>
   <field type="string">pseudopotential</field>
   <set>
    <rc><c>  36</c><c>Ti</c><c>     47.88000000</c><c>     10.00000000</c><c> PAW_PBE Ti_pv 07Sep2000                </c></rc>
   </set>
  </array>
 </atominfo>
 <structure name="initialpos" >
  <crystal>
   <varray name="basis" >
    <v>       8.82066710      0.02476544      0.00000000</v>
    <v>      -4.38888587      7.65130461      0.00000000</v>
    <v>       0.00000000      0.00000000      9.20747447</v>
   </varray>
   <i name="volume">    622.40965371</i>
   <varray name="rec_basis" >
    <v>       0.11318782      0.06492598      0.00000000</v>
    <v>      -0.00036636      0.13048652      0.00000000</v>
    <v>       0.00000000      0.00000000      0.10860741</v>
   </varray>
  </crystal>
  <varray name="positions" >
   <v>       0.10995913      0.22258994      0.12421573</v>
   <v>       0.44407673      0.22258994      0.12500000</v>
   <v>       0.77741006      0.22258994      0.12500000</v>
   <v>       0.11074339      0.55592327      0.12500000</v>
   <v>       0.44407673      0.55592327      0.12500000</v>
   <v>       0.77741006      0.55592327      0.12500000</v>
   <v>       0.11074339      0.88925661      0.12500000</v>
   <v>       0.44407673      0.88925661      0.12500000</v>
   <v>       0.77741006      0.88925661      0.12500000</v>
   <v>       0.11074339      0.22258994      0.62500000</v>
   <v>       0.44407673      0.22258994      0.62500000</v>
   <v>       0.77741006      0.22258994      0.62500000</v>
   <v>       0.11074339      0.55592327      0.62500000</v>
   <v>       0.44407673      0.55592327      0.62500000</v>
   <v>       0.77741006      0.55592327      0.62500000</v>
   <v>       0.11074339      0.88925661      0.62500000</v>
   <v>       0.44407673      0.88925661      0.62500000</v>
   <v>       0.77741006      0.88925661      0.62500000</v>
   <v>       0.22258994      0.11074339      0.37500000</v>
   <v>       0.55592327      0.11074339      0.37500000</v>
   <v>       0.88925661      0.11074339      0.37500000</v>
   <v>       0.22258994      0.44407673      0.37500000</v>
   <v>       0.55592327      0.44407673      0.37500000</v>
   <v>       0.88925661      0.44407673      0.37500000</v>
   <v>       0.22258994      0.77741006      0.37500000</v>
   <v>       0.55592327      0.77741006      0.37500000</v>
   <v>       0.88925661      0.77741006      0.37500000</v>
   <v>       0.22258994      0.11074339      0.87500000</v>
   <v>       0.55592327      0.11074339      0.87500000</v>
   <v>       0.88925661      0.11074339      0.87500000</v>
   <v>       0.22258994      0.44407673      0.87500000</v>
   <v>       0.55592327      0.44407673      0.87500000</v>
   <v>       0.88925661      0.44407673      0.87500000</v>
   <v>       0.22258994      0.77741006      0.87500000</v>
   <v>       0.55592327      0.77741006      0.87500000</v>
   <v>       0.88925661      0.77741006      0.87500000</v>
  </varray>
 </structure>
 <calculation>
  <scstep>
   <time name="dav">  431.17  450.57</time>
   <time name="total">  431.70  454.89</time>
   <energy>
    <i name="alphaZ">   2270.51201468</i>
    <i name="ewald"> -28942.79035897</i>
    <i name="hartreedc">  -7971.31891344</i>
    <i name="XCdc">   1293.32569494</i>
    <i name="pawpsdc">  25711.31321228</i>
    <i name="pawaedc"> -25685.71707589</i>
    <i name="eentropy">     -0.00092198</i>
    <i name="bandstr">    792.76090317</i>
    <i name="atom">  37525.52423787</i>
    <i name="e_fr_energy">   4993.60879266</i>
    <i name="e_wo_entrp">   4993.60971465</i>
    <i name="e_0_energy">   4993.60925365</i>
   </energy>
  </scstep>
  <scstep>
   <time name="dav">  373.52  377.06</time>
   <time name="total">  373.62  377.71</time>
   <energy>
    <i name="e_fr_energy">     91.10311616</i>
    <i name="e_wo_entrp">     91.10481955</i>
    <i name="e_0_energy">     91.10396785</i>
   </energy>
  </scstep>
  <scstep>
   <time name="dav">  541.37  582.66</time>
   <time name="total">  541.47  582.78</time>
   <energy>
    <i name="e_fr_energy">   -292.08702898</i>
    <i name="e_wo_entrp">   -292.08582124</i>
    <i name="e_0_energy">   -292.08642511</i>
   </energy>
  </scstep>
  <scstep>
   <time name="dav">  668.03  763.43</time>
   <time name="total">  669.06  766.63</time>
   <energy>
    <i name="e_fr_energy">   -323.54354697</i>
    <i name="e_wo_entrp">   -323.54268200</i>
    <i name="e_0_energy">   -323.54311448</i>
   </energy>
  </scstep>
  <scstep>
   <time name="dav">  970.03 1295.64</time>
   <time name="total">  997.18 1345.88</time>
   <energy>
    <i name="e_fr_energy">   -324.46978360</i>
    <i name="e_wo_entrp">   -324.46884020</i>
    <i name="e_0_energy">   -324.46931190</i>
   </energy>
  </scstep>
  <scstep>
   <time name="dav">  596.14  619.71</time>
   <time name="total">  625.06  653.00</time>
   <energy>
    <i name="e_fr_energy">   -286.11546141</i>
    <i name="e_wo_entrp">   -286.11315562</i>
    <i name="e_0_energy">   -286.11430851</i>
   </energy>
  </scstep>
  <scstep>
   <time name="dav">  663.83  665.28</time>
   <time name="total">  692.57  694.89</time>
   <energy>
    <i name="e_fr_energy">   -284.20333546</i>
    <i name="e_wo_entrp">   -284.20156176</i>
    <i name="e_0_energy">   -284.20244861</i>
   </energy>
  </scstep>
  <scstep>
   <time name="dav">  657.05  660.61</time>
   <time name="total">  687.29  690.98</time>
   <energy>
    <i name="e_fr_energy">   -284.28357951</i>
    <i name="e_wo_entrp">   -284.28158718</i>
    <i name="e_0_energy">   -284.28258335</i>
   </energy>
  </scstep>
  <scstep>
   <time name="dav">  704.77  705.23</time>
   <time name="total">  728.68  729.14</time>
   <energy>
    <i name="e_fr_energy">   -284.10889917</i>
    <i name="e_wo_entrp">   -284.10661684</i>
    <i name="e_0_energy">   -284.10775801</i>
   </energy>
  </scstep>
  <scstep>
   <time name="dav">  670.29  673.94</time>
   <time name="total">  698.22  702.17</time>
   <energy>
    <i name="e_fr_energy">   -284.04593480</i>
    <i name="e_wo_entrp">   -284.04363279</i>
    <i name="e_0_energy">   -284.04478379</i>
   </energy>
  </scstep>
  <scstep>
   <time name="dav">  605.18  605.69</time>
   <time name="total">  629.66  630.29</time>
   <energy>
    <i name="e_fr_energy">   -284.01653018</i>
    <i name="e_wo_entrp">   -284.01452975</i>
    <i name="e_0_energy">   -284.01552997</i>
   </energy>
  </scstep>
  <scstep>
   <time name="dav">  675.94  679.85</time>
   <time name="total">  705.52  709.44</time>
   <energy>
    <i name="e_fr_energy">   -284.01729895</i>
    <i name="e_wo_entrp">   -284.01531762</i>
    <i name="e_0_energy">   -284.01630828</i>
   </energy>
  </scstep>
  <scstep>
   <time name="dav">  639.74  641.01</time>
   <time name="total">  665.53  666.87</time>
   <energy>
    <i name="e_fr_energy">   -284.01599142</i>
    <i name="e_wo_entrp">   -284.01396549</i>
    <i name="e_0_energy">   -284.01497845</i>
   </energy>
  </scstep>
  <scstep>
   <time name="dav">  680.41  683.02</time>
   <time name="total">  707.41  710.03</time>
   <energy>
    <i name="e_fr_energy">   -284.01580723</i>
    <i name="e_wo_entrp">   -284.01376781</i>
    <i name="e_0_energy">   -284.01478752</i>
   </energy>
  </scstep>
  <scstep>
   <time name="dav">  675.56  679.55</time>
   <time name="total">  704.58  708.59</time>
   <energy>
    <i name="e_fr_energy">   -284.01576475</i>
    <i name="e_wo_entrp">   -284.01372428</i>
    <i name="e_0_energy">   -284.01474452</i>
   </energy>
  </scstep>
  <scstep>
   <time name="dav">  687.44  688.36</time>
   <time name="total">  714.22  715.16</time>
   <energy>
    <i name="e_fr_energy">   -284.01574488</i>
    <i name="e_wo_entrp">   -284.01370376</i>
    <i name="e_0_energy">   -284.01472432</i>
   </energy>
  </scstep>
  <scstep>
   <time name="dav">  676.57  679.27</time>
   <time name="total">  704.69  707.48</time>
   <energy>
    <i name="e_fr_energy">   -284.01571261</i>
    <i name="e_wo_entrp">   -284.01366719</i>
    <i name="e_0_energy">   -284.01468990</i>
   </energy>
  </scstep>
  <scstep>
   <time name="dav">  680.29  683.37</time>
   <time name="total">  709.86  713.01</time>
   <energy>
    <i name="e_fr_energy">   -284.01569739</i>
    <i name="e_wo_entrp">   -284.01364964</i>
    <i name="e_0_energy">   -284.01467352</i>
   </energy>
  </scstep>
  <scstep>
   <time name="dav">  694.99  695.74</time>
   <time name="total">  723.26  724.05</time>
   <energy>
    <i name="e_fr_energy">   -284.01568965</i>
    <i name="e_wo_entrp">   -284.01364088</i>
    <i name="e_0_energy">   -284.01466526</i>
   </energy>
  </scstep>
  <scstep>
   <time name="dav">  650.17  653.36</time>
   <time name="total">  680.70  684.04</time>
   <energy>
    <i name="e_fr_energy">   -284.01568736</i>
    <i name="e_wo_entrp">   -284.01363827</i>
    <i name="e_0_energy">   -284.01466282</i>
   </energy>
  </scstep>
  <scstep>
   <time name="dav">  492.97  542.15</time>
   <time name="total">  507.80  557.24</time>
   <energy>
    <i name="e_fr_energy">   -284.01568704</i>
    <i name="e_wo_entrp">   -284.01363781</i>
    <i name="e_0_energy">   -284.01466242</i>
   </energy>
  </scstep>
  <scstep>
   <time name="dav">  324.12  364.10</time>
   <time name="total">  337.49  382.65</time>
   <energy>
    <i name="e_fr_energy">   -284.01568708</i>
    <i name="e_wo_entrp">   -284.01363782</i>
    <i name="e_0_energy">   -284.01466245</i>
   </energy>
  </scstep>
  <scstep>
   <time name="dav">  286.00  309.88</time>
   <time name="total">  300.10  328.59</time>
   <energy>
    <i name="e_fr_energy">   -284.01568750</i>
    <i name="e_wo_entrp">   -284.01363826</i>
    <i name="e_0_energy">   -284.01466288</i>
   </energy>
  </scstep>
  <scstep>
   <time name="dav">  260.70  272.07</time>
   <time name="total">  277.67  293.01</time>
   <energy>
    <i name="e_fr_energy">   -284.01568758</i>
    <i name="e_wo_entrp">   -284.01363834</i>
    <i name="e_0_energy">   -284.01466296</i>
   </energy>
  </scstep>
  <scstep>
   <time name="dav">  268.78  268.75</time>
   <time name="total">  285.79  285.75</time>
   <energy>
    <i name="e_fr_energy">   -284.01568764</i>
    <i name="e_wo_entrp">   -284.01363840</i>
    <i name="e_0_energy">   -284.01466302</i>
   </energy>
  </scstep>
  <scstep>
   <time name="dav">  286.87  286.84</time>
   <time name="total">  305.38  305.35</time>
   <energy>
    <i name="e_fr_energy">   -284.01568766</i>
    <i name="e_wo_entrp">   -284.01363842</i>
    <i name="e_0_energy">   -284.01466304</i>
   </energy>
  </scstep>
  <scstep>
   <time name="dav">  279.81  279.79</time>
   <time name="total">  295.06  295.03</time>
   <energy>
    <i name="e_fr_energy">   -284.01568767</i>
    <i name="e_wo_entrp">   -284.01363843</i>
    <i name="e_0_energy">   -284.01466305</i>
   </energy>
  </scstep>
  <scstep>
   <time name="dav">  273.98  273.94</time>
   <time name="total">  274.30  274.27</time>
   <energy>
    <i name="alphaZ">   2270.51201468</i>
    <i name="ewald"> -28942.79035897</i>
    <i name="hartreedc">  -7055.71380553</i>
    <i name="XCdc">   1246.79679706</i>
    <i name="pawpsdc">  25661.90611743</i>
    <i name="pawaedc"> -25762.89618996</i>
    <i name="eentropy">     -0.00204924</i>
    <i name="bandstr">  -5227.35245102</i>
    <i name="atom">  37525.52423787</i>
    <i name="e_fr_energy">   -284.01568768</i>
    <i name="e_wo_entrp">   -284.01363844</i>
    <i name="e_0_energy">   -284.01466306</i>
   </energy>
  </scstep>
  <structure>
   <crystal>
    <varray name="basis" >
     <v>       8.82066710      0.02476544      0.00000000</v>
     <v>      -4.38888587      7.65130461      0.00000000</v>
     <v>       0.00000000      0.00000000      9.20747447</v>
    </varray>
    <i name="volume">    622.40965371</i>
    <varray name="rec_basis" >
     <v>       0.11318782      0.06492598      0.00000000</v>
     <v>      -0.00036636      0.13048652      0.00000000</v>
     <v>       0.00000000      0.00000000      0.10860741</v>
    </varray>
   </crystal>
   <varray name="positions" >
    <v>       0.10995913      0.22258994      0.12421573</v>
    <v>       0.44407673      0.22258994      0.12500000</v>
    <v>       0.77741006      0.22258994      0.12500000</v>
    <v>       0.11074339      0.55592327      0.12500000</v>
    <v>       0.44407673      0.55592327      0.12500000</v>
    <v>       0.77741006      0.55592327      0.12500000</v>
    <v>       0.11074339      0.88925661      0.12500000</v>
    <v>       0.44407673      0.88925661      0.12500000</v>
    <v>       0.77741006      0.88925661      0.12500000</v>
    <v>       0.11074339      0.22258994      0.62500000</v>
    <v>       0.44407673      0.22258994      0.62500000</v>
    <v>       0.77741006      0.22258994      0.62500000</v>
    <v>       0.11074339      0.55592327      0.62500000</v>
    <v>       0.44407673      0.55592327      0.62500000</v>
    <v>       0.77741006      0.55592327      0.62500000</v>
    <v>       0.11074339      0.88925661      0.62500000</v>
    <v>       0.44407673      0.88925661      0.62500000</v>
    <v>       0.77741006      0.88925661      0.62500000</v>
    <v>       0.22258994      0.11074339      0.37500000</v>
    <v>       0.55592327      0.11074339      0.37500000</v>
    <v>       0.88925661      0.11074339      0.37500000</v>
    <v>       0.22258994      0.44407673      0.37500000</v>
    <v>       0.55592327      0.44407673      0.37500000</v>
    <v>       0.88925661      0.44407673      0.37500000</v>
    <v>       0.22258994      0.77741006      0.37500000</v>
    <v>       0.55592327      0.77741006      0.37500000</v>
    <v>       0.88925661      0.77741006      0.37500000</v>
    <v>       0.22258994      0.11074339      0.87500000</v>
    <v>       0.55592327      0.11074339      0.87500000</v>
    <v>       0.88925661      0.11074339      0.87500000</v>
    <v>       0.22258994      0.44407673      0.87500000</v>
    <v>       0.55592327      0.44407673      0.87500000</v>
    <v>       0.88925661      0.44407673      0.87500000</v>
    <v>       0.22258994      0.77741006      0.87500000</v>
    <v>       0.55592327      0.77741006      0.87500000</v>
    <v>       0.88925661      0.77741006      0.87500000</v>
   </varray>
  </structure>
  <varray name="forces" >
   <v>       0.04371842     -0.00030812      0.04990746</v>
   <v>      -0.00996546      0.00450834     -0.00162847</v>
   <v>      -0.01009352     -0.00362770     -0.00162529</v>
   <v>      -0.00373013      0.00785436     -0.00163594</v>
   <v>      -0.00346796     -0.00727829     -0.00136753</v>
   <v>      -0.00259788      0.00028817     -0.00077191</v>
   <v>      -0.00381050      0.00028769     -0.00164204</v>
   <v>      -0.00234427      0.00062044     -0.00077210</v>
   <v>      -0.00361650      0.00118569     -0.00136343</v>
   <v>       0.00200218      0.00064465     -0.01328180</v>
   <v>      -0.00201457     -0.00051830      0.00018851</v>
   <v>      -0.00200304      0.00122755      0.00020028</v>
   <v>      -0.00102162     -0.00025682      0.00019141</v>
   <v>      -0.00098052      0.00051032      0.00033023</v>
   <v>      -0.00005159      0.00036844      0.00099436</v>
   <v>      -0.00112490      0.00206256      0.00018721</v>
   <v>       0.00020634      0.00071760      0.00099340</v>
   <v>      -0.00109101     -0.00105935      0.00033348</v>
   <v>      -0.01140820      0.00643272     -0.01198475</v>
   <v>       0.00087795     -0.00082551      0.00019086</v>
   <v>       0.00339946      0.00108106      0.00133151</v>
   <v>       0.00059498     -0.00858201     -0.00556552</v>
   <v>       0.00300433      0.00062009      0.00151573</v>
   <v>       0.00158289      0.00018911     -0.00073625</v>
   <v>       0.00073533     -0.00073246      0.00014179</v>
   <v>       0.00020832     -0.00025786      0.00018571</v>
   <v>       0.00196284     -0.00144809      0.00041581</v>
   <v>       0.00306363     -0.00189476      0.00180951</v>
   <v>       0.00082219     -0.00088423      0.00014310</v>
   <v>      -0.01129432     -0.00752606     -0.01282047</v>
   <v>       0.00072191      0.00827157     -0.00563375</v>
   <v>       0.00079683     -0.00076725     -0.00060074</v>
   <v>       0.00386592     -0.00112921      0.00145274</v>
   <v>       0.00077022     -0.00065959      0.00019115</v>
   <v>       0.00022580     -0.00027552      0.00022314</v>
   <v>       0.00205645      0.00116076      0.00050261</v>
  </varray>
  <varray name="stress" >
   <v>       1.83213481     -2.07392997     -0.00141317</v>
   <v>      -2.07390821     -0.61528510      0.00099420</v>
   <v>      -0.00145766      0.00092607     12.84700204</v>
  </varray>
  <energy>
   <i name="e_fr_energy">   -284.01568768</i>
   <i name="e_wo_entrp">   -284.01466306</i>
   <i name="e_0_energy">     -0.00204924</i>
  </energy>
  <eigenvalues>
   <array>
    <dimension dim="1">band</dimension>
    <dimension dim="2">kpoint</dimension>
    <dimension dim="3">spin</dimension>
    <field>eigene</field>
    <field>occ</field>
    <set>
     <set comment="spin 1">
      <set comment="kpoint 1">
       <r> -27.5009  1.0000</r>
       <r> -27.3028  1.0000</r>
       <r> -27.3026  1.0000</r>
       <r> -27.3026  1.0000</r>
       <r> -27.3025  1.0000</r>
       <r> -27.2971  1.0000</r>
       <r> -27.2967  1.0000</r>
       <r> -27.2963  1.0000</r>
       <r> -27.2962  1.0000</r>
       <r> -27.2962  1.0000</r>
       <r> -27.2959  1.0000</r>
       <r> -27.2943  1.0000</r>
       <r> -27.2942  1.0000</r>
       <r> -27.2941  1.0000</r>
       <r> -27.2940  1.0000</r>
       <r> -27.2939  1.0000</r>
       <r> -27.2939  1.0000</r>
       <r> -27.2938  1.0000</r>
       <r> -27.2937  1.0000</r>
       <r> -27.2909  1.0000</r>
       <r> -27.2908  1.0000</r>
       <r> -27.2907  1.0000</r>
       <r> -27.2906  1.0000</r>
       <r> -27.2176  1.0000</r>
       <r> -27.2172  1.0000</r>
       <r> -27.1840  1.0000</r>
       <r> -27.1838  1.0000</r>
       <r> -27.1829  1.0000</r>
       <r> -27.1828  1.0000</r>
       <r> -27.1827  1.0000</r>
       <r> -27.1826  1.0000</r>
       <r> -27.1426  1.0000</r>
       <r> -27.1420  1.0000</r>
       <r> -27.1012  1.0000</r>
       <r> -27.1009  1.0000</r>
       <r> -27.0992  1.0000</r>
       <r> -27.0989  1.0000</r>
       <r> -27.0967  1.0000</r>
       <r> -27.0963  1.0000</r>
       <r> -27.0963  1.0000</r>
       <r> -27.0959  1.0000</r>
       <r> -27.0655  1.0000</r>
       <r> -27.0654  1.0000</r>
       <r> -27.0653  1.0000</r>
       <r> -27.0653  1.0000</r>
       <r> -27.0650  1.0000</r>
       <r> -27.0646  1.0000</r>
       <r> -27.0644  1.0000</r>
       <r> -27.0643  1.0000</r>
       <r> -27.0599  1.0000</r>
       <r> -27.0596  1.0000</r>
       <r> -26.9728  1.0000</r>
       <r> -26.9724  1.0000</r>
       <r> -26.9541  1.0000</r>
       <r> -26.9541  1.0000</r>
       <r> -26.9438  1.0000</r>
       <r> -26.9438  1.0000</r>
       <r> -26.9437  1.0000</r>
       <r> -26.9435  1.0000</r>
       <r> -26.9184  1.0000</r>
       <r> -26.9182  1.0000</r>
       <r> -26.9180  1.0000</r>
       <r> -26.9179  1.0000</r>
       <r> -26.9163  1.0000</r>
       <r> -26.9160  1.0000</r>
       <r> -26.9160  1.0000</r>
       <r> -26.9158  1.0000</r>
       <r> -26.9158  1.0000</r>
       <r> -26.9158  1.0000</r>
       <r> -26.9154  1.0000</r>
       <r> -26.9152  1.0000</r>
       <r> -26.8771  1.0000</r>
       <r> -26.8766  1.0000</r>
       <r> -26.8766  1.0000</r>
       <r> -26.8762  1.0000</r>
       <r> -26.8734  1.0000</r>
       <r> -26.8729  1.0000</r>
       <r> -26.8692  1.0000</r>
       <r> -26.8691  1.0000</r>
       <r> -26.8690  1.0000</r>
       <r> -26.8688  1.0000</r>
       <r> -26.8607  1.0000</r>
       <r> -26.8604  1.0000</r>
       <r> -26.8603  1.0000</r>
       <r> -26.8603  1.0000</r>
       <r> -26.8602  1.0000</r>
       <r> -26.8601  1.0000</r>
       <r> -26.8599  1.0000</r>
       <r> -26.8599  1.0000</r>
       <r> -26.8543  1.0000</r>
       <r> -26.8543  1.0000</r>
       <r> -26.8542  1.0000</r>
       <r> -26.8541  1.0000</r>
       <r> -26.8437  1.0000</r>
       <r> -26.8339  1.0000</r>
       <r> -26.7879  1.0000</r>
       <r> -26.7877  1.0000</r>
       <r> -26.7827  1.0000</r>
       <r> -26.7826  1.0000</r>
       <r> -26.7809  1.0000</r>
       <r> -26.7808  1.0000</r>
       <r> -26.7758  1.0000</r>
       <r> -26.7757  1.0000</r>
       <r> -26.7757  1.0000</r>
       <r> -26.7754  1.0000</r>
       <r> -26.7650  1.0000</r>
       <r> -26.7315  1.0000</r>
       <r> -26.7274  1.0000</r>
       <r>  -0.2115  1.0000</r>
       <r>   1.6772  1.0000</r>
       <r>   1.6774  1.0000</r>
       <r>   2.3383  1.0000</r>
       <r>   2.3386  1.0000</r>
       <r>   2.3387  1.0000</r>
       <r>   2.3390  1.0000</r>
       <r>   2.3551  1.0000</r>
       <r>   2.3554  1.0000</r>
       <r>   3.2430  1.0000</r>
       <r>   3.2432  1.0000</r>
       <r>   3.2434  1.0000</r>
       <r>   3.2436  1.0000</r>
       <r>   3.2437  1.0000</r>
       <r>   3.2437  1.0000</r>
       <r>   3.2440  1.0000</r>
       <r>   3.2443  1.0000</r>
       <r>   3.2573  1.0000</r>
       <r>   3.2574  1.0000</r>
       <r>   3.2575  1.0000</r>
       <r>   3.2581  1.0000</r>
       <r>   3.2737  1.0000</r>
       <r>   4.1928  1.0000</r>
       <r>   4.1935  1.0000</r>
       <r>   4.2013  1.0000</r>
       <r>   4.2017  1.0000</r>
       <r>   4.2018  1.0000</r>
       <r>   4.2024  1.0000</r>
       <r>   4.2274  1.0000</r>
       <r>   4.2290  1.0000</r>
       <r>   4.5192  1.0000</r>
       <r>   4.5193  1.0000</r>
       <r>   4.5265  1.0000</r>
       <r>   4.5277  1.0000</r>
       <r>   4.5308  1.0000</r>
       <r>   4.5309  1.0000</r>
       <r>   4.5505  1.0000</r>
       <r>   4.5507  1.0000</r>
       <r>   4.5508  1.0000</r>
       <r>   4.5522  1.0000</r>
       <r>   4.6340  1.0000</r>
       <r>   4.6341  1.0000</r>
       <r>   4.6902  1.0000</r>
       <r>   4.6912  1.0000</r>
       <r>   4.6919  1.0000</r>
       <r>   4.6930  1.0000</r>
       <r>   4.8668  1.0000</r>
       <r>   4.8681  1.0000</r>
       <r>   4.8682  1.0000</r>
       <r>   4.8695  1.0000</r>
       <r>   5.2769  1.0000</r>
       <r>   5.2789  1.0000</r>
       <r>   5.2790  1.0000</r>
       <r>   5.2795  1.0000</r>
       <r>   5.2796  1.0000</r>
       <r>   5.2797  1.0000</r>
       <r>   5.2799  1.0000</r>
       <r>   5.2808  1.0000</r>
       <r>   5.2812  1.0000</r>
       <r>   5.2821  1.0000</r>
       <r>   5.2824  1.0000</r>
       <r>   5.2836  1.0000</r>
       <r>   5.3003  1.0000</r>
       <r>   5.3013  1.0000</r>
       <r>   5.3013  1.0000</r>
       <r>   5.3021  1.0000</r>
       <r>   5.3288  1.0000</r>
       <r>   5.3304  1.0000</r>
       <r>   5.7366  1.0000</r>
       <r>   5.7367  1.0000</r>
       <r>   5.7367  1.0000</r>
       <r>   5.7369  1.0000</r>
       <r>   6.0798  0.0000</r>
       <r>   6.0826  0.0000</r>
       <r>   6.1595  0.0000</r>
       <r>   6.1606  0.0000</r>
       <r>   6.2141  0.0000</r>
       <r>   6.2157  0.0000</r>
       <r>   6.5297  0.0000</r>
       <r>   6.5309  0.0000</r>
       <r>   6.5313  0.0000</r>
       <r>   6.5318  0.0000</r>
       <r>   6.5321  0.0000</r>
       <r>   6.5323  0.0000</r>
       <r>   6.5328  0.0000</r>
       <r>   6.5332  0.0000</r>
       <r>   6.5503  0.0000</r>
       <r>   6.5511  0.0000</r>
       <r>   6.5564  0.0000</r>
       <r>   6.5566  0.0000</r>
       <r>   6.5712  0.0000</r>
       <r>   6.5721  0.0000</r>
       <r>   6.5726  0.0000</r>
       <r>   6.5737  0.0000</r>
       <r>   6.6037  0.0000</r>
       <r>   6.6038  0.0000</r>
       <r>   6.6042  0.0000</r>
       <r>   6.6051  0.0000</r>
       <r>   6.6165  0.0000</r>
       <r>   6.6166  0.0000</r>
       <r>   6.6579  0.0000</r>
       <r>   6.7517  0.0000</r>
       <r>   6.7883  0.0000</r>
       <r>   6.7903  0.0000</r>
       <r>   6.7918  0.0000</r>
       <r>   6.7946  0.0000</r>
       <r>   6.7974  0.0000</r>
       <r>   6.8315  0.0000</r>
      </set>
      <set comment="kpoint 2">
       <r> -27.4958  1.0000</r>
       <r> -27.3418  1.0000</r>
       <r> -27.3325  1.0000</r>
       <r> -27.3325  1.0000</r>
       <r> -27.3166  1.0000</r>
       <r> -27.3162  1.0000</r>
       <r> -27.3127  1.0000</r>
       <r> -27.3126  1.0000</r>
       <r> -27.3101  1.0000</r>
       <r> -27.3100  1.0000</r>
       <r> -27.3080  1.0000</r>
       <r> -27.3080  1.0000</r>
       <r> -27.3076  1.0000</r>
       <r> -27.3076  1.0000</r>
       <r> -27.2732  1.0000</r>
       <r> -27.2731  1.0000</r>
       <r> -27.2718  1.0000</r>
       <r> -27.2708  1.0000</r>
       <r> -27.2700  1.0000</r>
       <r> -27.2698  1.0000</r>
       <r> -27.2521  1.0000</r>
       <r> -27.2519  1.0000</r>
       <r> -27.2516  1.0000</r>
       <r> -27.2365  1.0000</r>
       <r> -27.2237  1.0000</r>
       <r> -27.2209  1.0000</r>
       <r> -27.2111  1.0000</r>
       <r> -27.2085  1.0000</r>
       <r> -27.1513  1.0000</r>
       <r> -27.1508  1.0000</r>
       <r> -27.1443  1.0000</r>
       <r> -27.1437  1.0000</r>
       <r> -27.1189  1.0000</r>
       <r> -27.1139  1.0000</r>
       <r> -27.1132  1.0000</r>
       <r> -27.1100  1.0000</r>
       <r> -27.1005  1.0000</r>
       <r> -27.0970  1.0000</r>
       <r> -27.0928  1.0000</r>
       <r> -27.0916  1.0000</r>
       <r> -27.0863  1.0000</r>
       <r> -27.0860  1.0000</r>
       <r> -27.0860  1.0000</r>
       <r> -27.0855  1.0000</r>
       <r> -27.0839  1.0000</r>
       <r> -27.0836  1.0000</r>
       <r> -27.0436  1.0000</r>
       <r> -27.0425  1.0000</r>
       <r> -27.0292  1.0000</r>
       <r> -27.0248  1.0000</r>
       <r> -27.0065  1.0000</r>
       <r> -26.9648  1.0000</r>
       <r> -26.9593  1.0000</r>
       <r> -26.9582  1.0000</r>
       <r> -26.9577  1.0000</r>
       <r> -26.9553  1.0000</r>
       <r> -26.9439  1.0000</r>
       <r> -26.9346  1.0000</r>
       <r> -26.9279  1.0000</r>
       <r> -26.9277  1.0000</r>
       <r> -26.9249  1.0000</r>
       <r> -26.9240  1.0000</r>
       <r> -26.9239  1.0000</r>
       <r> -26.9199  1.0000</r>
       <r> -26.9197  1.0000</r>
       <r> -26.9189  1.0000</r>
       <r> -26.9188  1.0000</r>
       <r> -26.9169  1.0000</r>
       <r> -26.9167  1.0000</r>
       <r> -26.9070  1.0000</r>
       <r> -26.9069  1.0000</r>
       <r> -26.9063  1.0000</r>
       <r> -26.8935  1.0000</r>
       <r> -26.8895  1.0000</r>
       <r> -26.8732  1.0000</r>
       <r> -26.8730  1.0000</r>
       <r> -26.8722  1.0000</r>
       <r> -26.8720  1.0000</r>
       <r> -26.8656  1.0000</r>
       <r> -26.8654  1.0000</r>
       <r> -26.8635  1.0000</r>
       <r> -26.8613  1.0000</r>
       <r> -26.8611  1.0000</r>
       <r> -26.8609  1.0000</r>
       <r> -26.8553  1.0000</r>
       <r> -26.8553  1.0000</r>
       <r> -26.8547  1.0000</r>
       <r> -26.8547  1.0000</r>
       <r> -26.8538  1.0000</r>
       <r> -26.8536  1.0000</r>
       <r> -26.8525  1.0000</r>
       <r> -26.8483  1.0000</r>
       <r> -26.8461  1.0000</r>
       <r> -26.8459  1.0000</r>
       <r> -26.8385  1.0000</r>
       <r> -26.7939  1.0000</r>
       <r> -26.7938  1.0000</r>
       <r> -26.7932  1.0000</r>
       <r> -26.7864  1.0000</r>
       <r> -26.7841  1.0000</r>
       <r> -26.7840  1.0000</r>
       <r> -26.7837  1.0000</r>
       <r> -26.7832  1.0000</r>
       <r> -26.7768  1.0000</r>
       <r> -26.7673  1.0000</r>
       <r> -26.7661  1.0000</r>
       <r> -26.7413  1.0000</r>
       <r> -26.7294  1.0000</r>
       <r>  -0.1480  1.0000</r>
       <r>   1.7309  1.0000</r>
       <r>   1.7312  1.0000</r>
       <r>   1.7834  1.0000</r>
       <r>   2.1056  1.0000</r>
       <r>   2.1187  1.0000</r>
       <r>   2.6409  1.0000</r>
       <r>   2.6597  1.0000</r>
       <r>   2.8541  1.0000</r>
       <r>   3.0442  1.0000</r>
       <r>   3.0444  1.0000</r>
       <r>   3.1891  1.0000</r>
       <r>   3.1893  1.0000</r>
       <r>   3.2010  1.0000</r>
       <r>   3.2012  1.0000</r>
       <r>   3.3231  1.0000</r>
       <r>   3.3412  1.0000</r>
       <r>   3.3415  1.0000</r>
       <r>   3.3498  1.0000</r>
       <r>   3.3501  1.0000</r>
       <r>   3.3552  1.0000</r>
       <r>   3.3555  1.0000</r>
       <r>   4.0861  1.0000</r>
       <r>   4.1696  1.0000</r>
       <r>   4.1789  1.0000</r>
       <r>   4.2237  1.0000</r>
       <r>   4.2323  1.0000</r>
       <r>   4.2404  1.0000</r>
       <r>   4.2609  1.0000</r>
       <r>   4.2699  1.0000</r>
       <r>   4.3402  1.0000</r>
       <r>   4.3731  1.0000</r>
       <r>   4.3834  1.0000</r>
       <r>   4.4134  1.0000</r>
       <r>   4.4397  1.0000</r>
       <r>   4.4566  1.0000</r>
       <r>   4.4574  1.0000</r>
       <r>   4.4591  1.0000</r>
       <r>   4.4599  1.0000</r>
       <r>   4.5337  1.0000</r>
       <r>   4.5636  1.0000</r>
       <r>   4.6533  1.0000</r>
       <r>   4.6615  1.0000</r>
       <r>   4.6725  1.0000</r>
       <r>   4.6842  1.0000</r>
       <r>   4.8264  1.0000</r>
       <r>   5.0969  1.0000</r>
       <r>   5.0977  1.0000</r>
       <r>   5.1048  1.0000</r>
       <r>   5.1056  1.0000</r>
       <r>   5.2257  1.0000</r>
       <r>   5.2268  1.0000</r>
       <r>   5.2490  1.0000</r>
       <r>   5.2623  1.0000</r>
       <r>   5.2633  1.0000</r>
       <r>   5.2639  1.0000</r>
       <r>   5.2644  1.0000</r>
       <r>   5.2674  1.0000</r>
       <r>   5.2742  1.0000</r>
       <r>   5.2932  1.0000</r>
       <r>   5.3177  1.0000</r>
       <r>   5.3188  1.0000</r>
       <r>   5.3209  1.0000</r>
       <r>   5.3217  1.0000</r>
       <r>   5.3223  1.0000</r>
       <r>   5.3440  1.0000</r>
       <r>   5.3452  1.0000</r>
       <r>   5.3794  1.0000</r>
       <r>   5.7248  1.0000</r>
       <r>   5.7251  1.0000</r>
       <r>   5.7282  1.0000</r>
       <r>   5.7285  1.0000</r>
       <r>   6.0235  0.0000</r>
       <r>   6.0261  0.0000</r>
       <r>   6.1015  0.0000</r>
       <r>   6.1473  0.0000</r>
       <r>   6.2670  0.0000</r>
       <r>   6.3159  0.0000</r>
       <r>   6.3895  0.0000</r>
       <r>   6.3900  0.0000</r>
       <r>   6.3903  0.0000</r>
       <r>   6.3908  0.0000</r>
       <r>   6.4228  0.0000</r>
       <r>   6.4233  0.0000</r>
       <r>   6.4483  0.0000</r>
       <r>   6.4920  0.0000</r>
       <r>   6.4942  0.0000</r>
       <r>   6.5428  0.0000</r>
       <r>   6.5608  0.0000</r>
       <r>   6.5629  0.0000</r>
       <r>   6.5634  0.0000</r>
       <r>   6.5675  0.0000</r>
       <r>   6.5676  0.0000</r>
       <r>   6.5933  0.0000</r>
       <r>   6.6045  0.0000</r>
       <r>   6.6051  0.0000</r>
       <r>   6.6441  0.0000</r>
       <r>   6.6441  0.0000</r>
       <r>   6.7007  0.0000</r>
       <r>   6.7025  0.0000</r>
       <r>   6.7253  0.0000</r>
       <r>   6.7358  0.0000</r>
       <r>   6.7434  0.0000</r>
       <r>   6.7729  0.0000</r>
       <r>   6.7765  0.0000</r>
       <r>   6.7810  0.0000</r>
       <r>   6.7886  0.0000</r>
       <r>   6.7897  0.0000</r>
      </set>
      <set comment="kpoint 3">
       <r> -27.4808  1.0000</r>
       <r> -27.3853  1.0000</r>
       <r> -27.3615  1.0000</r>
       <r> -27.3615  1.0000</r>
       <r> -27.3302  1.0000</r>
       <r> -27.3300  1.0000</r>
       <r> -27.3258  1.0000</r>
       <r> -27.3258  1.0000</r>
       <r> -27.3239  1.0000</r>
       <r> -27.3238  1.0000</r>
       <r> -27.3191  1.0000</r>
       <r> -27.3191  1.0000</r>
       <r> -27.3186  1.0000</r>
       <r> -27.3185  1.0000</r>
       <r> -27.2752  1.0000</r>
       <r> -27.2547  1.0000</r>
       <r> -27.2546  1.0000</r>
       <r> -27.2522  1.0000</r>
       <r> -27.2520  1.0000</r>
       <r> -27.2422  1.0000</r>
       <r> -27.2408  1.0000</r>
       <r> -27.2340  1.0000</r>
       <r> -27.2302  1.0000</r>
       <r> -27.2296  1.0000</r>
       <r> -27.2264  1.0000</r>
       <r> -27.2139  1.0000</r>
       <r> -27.2129  1.0000</r>
       <r> -27.2126  1.0000</r>
       <r> -27.1500  1.0000</r>
       <r> -27.1495  1.0000</r>
       <r> -27.1483  1.0000</r>
       <r> -27.1374  1.0000</r>
       <r> -27.1344  1.0000</r>
       <r> -27.1273  1.0000</r>
       <r> -27.1231  1.0000</r>
       <r> -27.1170  1.0000</r>
       <r> -27.1167  1.0000</r>
       <r> -27.1152  1.0000</r>
       <r> -27.1139  1.0000</r>
       <r> -27.0614  1.0000</r>
       <r> -27.0602  1.0000</r>
       <r> -27.0581  1.0000</r>
       <r> -27.0579  1.0000</r>
       <r> -27.0539  1.0000</r>
       <r> -27.0536  1.0000</r>
       <r> -27.0507  1.0000</r>
       <r> -27.0389  1.0000</r>
       <r> -27.0382  1.0000</r>
       <r> -26.9963  1.0000</r>
       <r> -26.9916  1.0000</r>
       <r> -26.9814  1.0000</r>
       <r> -26.9737  1.0000</r>
       <r> -26.9704  1.0000</r>
       <r> -26.9512  1.0000</r>
       <r> -26.9510  1.0000</r>
       <r> -26.9456  1.0000</r>
       <r> -26.9454  1.0000</r>
       <r> -26.9421  1.0000</r>
       <r> -26.9338  1.0000</r>
       <r> -26.9264  1.0000</r>
       <r> -26.9245  1.0000</r>
       <r> -26.9230  1.0000</r>
       <r> -26.9228  1.0000</r>
       <r> -26.9226  1.0000</r>
       <r> -26.9213  1.0000</r>
       <r> -26.9211  1.0000</r>
       <r> -26.9210  1.0000</r>
       <r> -26.9209  1.0000</r>
       <r> -26.9208  1.0000</r>
       <r> -26.9142  1.0000</r>
       <r> -26.9097  1.0000</r>
       <r> -26.9042  1.0000</r>
       <r> -26.8910  1.0000</r>
       <r> -26.8909  1.0000</r>
       <r> -26.8807  1.0000</r>
       <r> -26.8806  1.0000</r>
       <r> -26.8805  1.0000</r>
       <r> -26.8713  1.0000</r>
       <r> -26.8712  1.0000</r>
       <r> -26.8661  1.0000</r>
       <r> -26.8660  1.0000</r>
       <r> -26.8580  1.0000</r>
       <r> -26.8579  1.0000</r>
       <r> -26.8567  1.0000</r>
       <r> -26.8566  1.0000</r>
       <r> -26.8546  1.0000</r>
       <r> -26.8545  1.0000</r>
       <r> -26.8544  1.0000</r>
       <r> -26.8530  1.0000</r>
       <r> -26.8497  1.0000</r>
       <r> -26.8496  1.0000</r>
       <r> -26.8493  1.0000</r>
       <r> -26.8307  1.0000</r>
       <r> -26.8306  1.0000</r>
       <r> -26.8232  1.0000</r>
       <r> -26.8152  1.0000</r>
       <r> -26.8123  1.0000</r>
       <r> -26.8122  1.0000</r>
       <r> -26.8092  1.0000</r>
       <r> -26.7923  1.0000</r>
       <r> -26.7914  1.0000</r>
       <r> -26.7913  1.0000</r>
       <r> -26.7898  1.0000</r>
       <r> -26.7874  1.0000</r>
       <r> -26.7743  1.0000</r>
       <r> -26.7716  1.0000</r>
       <r> -26.7561  1.0000</r>
       <r> -26.7331  1.0000</r>
       <r>   0.0400  1.0000</r>
       <r>   1.2410  1.0000</r>
       <r>   1.8875  1.0000</r>
       <r>   1.8878  1.0000</r>
       <r>   1.9487  1.0000</r>
       <r>   1.9570  1.0000</r>
       <r>   2.7598  1.0000</r>
       <r>   2.7599  1.0000</r>
       <r>   2.9996  1.0000</r>
       <r>   3.0191  1.0000</r>
       <r>   3.1674  1.0000</r>
       <r>   3.1675  1.0000</r>
       <r>   3.1755  1.0000</r>
       <r>   3.1756  1.0000</r>
       <r>   3.2734  1.0000</r>
       <r>   3.3919  1.0000</r>
       <r>   3.3923  1.0000</r>
       <r>   3.4651  1.0000</r>
       <r>   3.4863  1.0000</r>
       <r>   3.4866  1.0000</r>
       <r>   3.4988  1.0000</r>
       <r>   3.4991  1.0000</r>
       <r>   3.9507  1.0000</r>
       <r>   4.1288  1.0000</r>
       <r>   4.1408  1.0000</r>
       <r>   4.1447  1.0000</r>
       <r>   4.1719  1.0000</r>
       <r>   4.1724  1.0000</r>
       <r>   4.1739  1.0000</r>
       <r>   4.1743  1.0000</r>
       <r>   4.1906  1.0000</r>
       <r>   4.1974  1.0000</r>
       <r>   4.2025  1.0000</r>
       <r>   4.2228  1.0000</r>
       <r>   4.2388  1.0000</r>
       <r>   4.3246  1.0000</r>
       <r>   4.3516  1.0000</r>
       <r>   4.3575  1.0000</r>
       <r>   4.3665  1.0000</r>
       <r>   4.4336  1.0000</r>
       <r>   4.4604  1.0000</r>
       <r>   4.7693  1.0000</r>
       <r>   4.7760  1.0000</r>
       <r>   4.7820  1.0000</r>
       <r>   4.7950  1.0000</r>
       <r>   5.1518  1.0000</r>
       <r>   5.1596  1.0000</r>
       <r>   5.1735  1.0000</r>
       <r>   5.1834  1.0000</r>
       <r>   5.1845  1.0000</r>
       <r>   5.2315  1.0000</r>
       <r>   5.2552  1.0000</r>
       <r>   5.2626  1.0000</r>
       <r>   5.2772  1.0000</r>
       <r>   5.2783  1.0000</r>
       <r>   5.2818  1.0000</r>
       <r>   5.2828  1.0000</r>
       <r>   5.3352  1.0000</r>
       <r>   5.3361  1.0000</r>
       <r>   5.3367  1.0000</r>
       <r>   5.3372  1.0000</r>
       <r>   5.3592  1.0000</r>
       <r>   5.3603  1.0000</r>
       <r>   5.3616  1.0000</r>
       <r>   5.3624  1.0000</r>
       <r>   5.4355  1.0000</r>
       <r>   5.4368  1.0000</r>
       <r>   5.5359  1.0000</r>
       <r>   5.7496  1.0000</r>
       <r>   5.7500  1.0000</r>
       <r>   5.7556  1.0000</r>
       <r>   5.7560  1.0000</r>
       <r>   5.8878  1.0000</r>
       <r>   5.8900  1.0000</r>
       <r>   6.0896  0.0000</r>
       <r>   6.1321  0.0000</r>
       <r>   6.2397  0.0000</r>
       <r>   6.2402  0.0000</r>
       <r>   6.2617  0.0000</r>
       <r>   6.2621  0.0000</r>
       <r>   6.3109  0.0000</r>
       <r>   6.3190  0.0000</r>
       <r>   6.3558  0.0000</r>
       <r>   6.3747  0.0000</r>
       <r>   6.3752  0.0000</r>
       <r>   6.3772  0.0000</r>
       <r>   6.3964  0.0000</r>
       <r>   6.4178  0.0000</r>
       <r>   6.4404  0.0000</r>
       <r>   6.4410  0.0000</r>
       <r>   6.4442  0.0000</r>
       <r>   6.4769  0.0000</r>
       <r>   6.4775  0.0000</r>
       <r>   6.5059  0.0000</r>
       <r>   6.5200  0.0000</r>
       <r>   6.5623  0.0000</r>
       <r>   6.5623  0.0000</r>
       <r>   6.6394  0.0000</r>
       <r>   6.7064  0.0000</r>
       <r>   6.7123  0.0000</r>
       <r>   6.7334  0.0000</r>
       <r>   6.7360  0.0000</r>
       <r>   6.7363  0.0000</r>
       <r>   6.7395  0.0000</r>
       <r>   6.7769  0.0000</r>
       <r>   6.9014  0.0000</r>
       <r>   6.9036  0.0000</r>
       <r>   6.9713  0.0000</r>
      </set>
      <set comment="kpoint 4">
       <r> -27.4566  1.0000</r>
       <r> -27.4242  1.0000</r>
       <r> -27.3770  1.0000</r>
       <r> -27.3770  1.0000</r>
       <r> -27.3372  1.0000</r>
       <r> -27.3370  1.0000</r>
       <r> -27.3312  1.0000</r>
       <r> -27.3312  1.0000</r>
       <r> -27.3300  1.0000</r>
       <r> -27.3299  1.0000</r>
       <r> -27.3285  1.0000</r>
       <r> -27.3284  1.0000</r>
       <r> -27.3276  1.0000</r>
       <r> -27.3276  1.0000</r>
       <r> -27.2954  1.0000</r>
       <r> -27.2433  1.0000</r>
       <r> -27.2431  1.0000</r>
       <r> -27.2424  1.0000</r>
       <r> -27.2422  1.0000</r>
       <r> -27.2408  1.0000</r>
       <r> -27.2401  1.0000</r>
       <r> -27.2359  1.0000</r>
       <r> -27.2354  1.0000</r>
       <r> -27.2092  1.0000</r>
       <r> -27.2073  1.0000</r>
       <r> -27.1906  1.0000</r>
       <r> -27.1823  1.0000</r>
       <r> -27.1819  1.0000</r>
       <r> -27.1740  1.0000</r>
       <r> -27.1715  1.0000</r>
       <r> -27.1663  1.0000</r>
       <r> -27.1618  1.0000</r>
       <r> -27.1613  1.0000</r>
       <r> -27.1348  1.0000</r>
       <r> -27.1314  1.0000</r>
       <r> -27.1303  1.0000</r>
       <r> -27.1275  1.0000</r>
       <r> -27.0839  1.0000</r>
       <r> -27.0815  1.0000</r>
       <r> -27.0545  1.0000</r>
       <r> -27.0523  1.0000</r>
       <r> -27.0326  1.0000</r>
       <r> -27.0292  1.0000</r>
       <r> -27.0216  1.0000</r>
       <r> -27.0213  1.0000</r>
       <r> -27.0160  1.0000</r>
       <r> -27.0158  1.0000</r>
       <r> -27.0047  1.0000</r>
       <r> -26.9990  1.0000</r>
       <r> -26.9845  1.0000</r>
       <r> -26.9841  1.0000</r>
       <r> -26.9839  1.0000</r>
       <r> -26.9779  1.0000</r>
       <r> -26.9777  1.0000</r>
       <r> -26.9762  1.0000</r>
       <r> -26.9659  1.0000</r>
       <r> -26.9610  1.0000</r>
       <r> -26.9516  1.0000</r>
       <r> -26.9384  1.0000</r>
       <r> -26.9336  1.0000</r>
       <r> -26.9260  1.0000</r>
       <r> -26.9254  1.0000</r>
       <r> -26.9252  1.0000</r>
       <r> -26.9246  1.0000</r>
       <r> -26.9244  1.0000</r>
       <r> -26.9215  1.0000</r>
       <r> -26.9214  1.0000</r>
       <r> -26.9081  1.0000</r>
       <r> -26.9067  1.0000</r>
       <r> -26.8852  1.0000</r>
       <r> -26.8849  1.0000</r>
       <r> -26.8848  1.0000</r>
       <r> -26.8837  1.0000</r>
       <r> -26.8817  1.0000</r>
       <r> -26.8775  1.0000</r>
       <r> -26.8674  1.0000</r>
       <r> -26.8673  1.0000</r>
       <r> -26.8667  1.0000</r>
       <r> -26.8666  1.0000</r>
       <r> -26.8647  1.0000</r>
       <r> -26.8633  1.0000</r>
       <r> -26.8632  1.0000</r>
       <r> -26.8619  1.0000</r>
       <r> -26.8618  1.0000</r>
       <r> -26.8597  1.0000</r>
       <r> -26.8597  1.0000</r>
       <r> -26.8505  1.0000</r>
       <r> -26.8504  1.0000</r>
       <r> -26.8499  1.0000</r>
       <r> -26.8492  1.0000</r>
       <r> -26.8487  1.0000</r>
       <r> -26.8486  1.0000</r>
       <r> -26.8467  1.0000</r>
       <r> -26.8420  1.0000</r>
       <r> -26.8390  1.0000</r>
       <r> -26.8389  1.0000</r>
       <r> -26.8187  1.0000</r>
       <r> -26.8157  1.0000</r>
       <r> -26.8155  1.0000</r>
       <r> -26.8024  1.0000</r>
       <r> -26.8022  1.0000</r>
       <r> -26.8021  1.0000</r>
       <r> -26.8020  1.0000</r>
       <r> -26.8001  1.0000</r>
       <r> -26.7930  1.0000</r>
       <r> -26.7860  1.0000</r>
       <r> -26.7468  1.0000</r>
       <r> -26.7390  1.0000</r>
       <r>   0.3444  1.0000</r>
       <r>   0.7516  1.0000</r>
       <r>   1.8711  1.0000</r>
       <r>   1.8740  1.0000</r>
       <r>   2.1321  1.0000</r>
       <r>   2.1323  1.0000</r>
       <r>   2.4372  1.0000</r>
       <r>   2.4373  1.0000</r>
       <r>   3.1636  1.0000</r>
       <r>   3.1637  1.0000</r>
       <r>   3.1665  1.0000</r>
       <r>   3.1666  1.0000</r>
       <r>   3.3929  1.0000</r>
       <r>   3.4036  1.0000</r>
       <r>   3.4040  1.0000</r>
       <r>   3.4119  1.0000</r>
       <r>   3.5558  1.0000</r>
       <r>   3.6770  1.0000</r>
       <r>   3.6774  1.0000</r>
       <r>   3.6796  1.0000</r>
       <r>   3.6868  1.0000</r>
       <r>   3.6871  1.0000</r>
       <r>   3.7858  1.0000</r>
       <r>   3.8037  1.0000</r>
       <r>   3.8160  1.0000</r>
       <r>   3.9080  1.0000</r>
       <r>   3.9084  1.0000</r>
       <r>   3.9140  1.0000</r>
       <r>   3.9144  1.0000</r>
       <r>   3.9270  1.0000</r>
       <r>   4.1253  1.0000</r>
       <r>   4.2336  1.0000</r>
       <r>   4.2486  1.0000</r>
       <r>   4.2553  1.0000</r>
       <r>   4.2647  1.0000</r>
       <r>   4.2654  1.0000</r>
       <r>   4.2908  1.0000</r>
       <r>   4.3327  1.0000</r>
       <r>   4.3543  1.0000</r>
       <r>   4.4410  1.0000</r>
       <r>   4.4456  1.0000</r>
       <r>   4.8433  1.0000</r>
       <r>   4.8479  1.0000</r>
       <r>   4.9010  1.0000</r>
       <r>   4.9194  1.0000</r>
       <r>   5.0301  1.0000</r>
       <r>   5.0494  1.0000</r>
       <r>   5.1596  1.0000</r>
       <r>   5.1608  1.0000</r>
       <r>   5.1674  1.0000</r>
       <r>   5.1775  1.0000</r>
       <r>   5.2726  1.0000</r>
       <r>   5.3229  1.0000</r>
       <r>   5.3240  1.0000</r>
       <r>   5.3317  1.0000</r>
       <r>   5.3327  1.0000</r>
       <r>   5.3745  1.0000</r>
       <r>   5.3757  1.0000</r>
       <r>   5.3831  1.0000</r>
       <r>   5.3843  1.0000</r>
       <r>   5.3849  1.0000</r>
       <r>   5.3852  1.0000</r>
       <r>   5.3853  1.0000</r>
       <r>   5.3862  1.0000</r>
       <r>   5.5420  1.0000</r>
       <r>   5.5647  1.0000</r>
       <r>   5.5663  1.0000</r>
       <r>   5.7232  1.0000</r>
       <r>   5.7251  1.0000</r>
       <r>   5.7702  1.0000</r>
       <r>   5.9383  0.9993</r>
       <r>   5.9386  0.9993</r>
       <r>   5.9581  0.6606</r>
       <r>   5.9604  0.5404</r>
       <r>   5.9607  0.5207</r>
       <r>   6.0421  0.0000</r>
       <r>   6.1260  0.0000</r>
       <r>   6.1555  0.0000</r>
       <r>   6.1558  0.0000</r>
       <r>   6.1636  0.0000</r>
       <r>   6.1639  0.0000</r>
       <r>   6.1648  0.0000</r>
       <r>   6.2056  0.0000</r>
       <r>   6.2085  0.0000</r>
       <r>   6.2089  0.0000</r>
       <r>   6.2383  0.0000</r>
       <r>   6.2388  0.0000</r>
       <r>   6.2419  0.0000</r>
       <r>   6.3788  0.0000</r>
       <r>   6.4356  0.0000</r>
       <r>   6.4359  0.0000</r>
       <r>   6.4584  0.0000</r>
       <r>   6.4625  0.0000</r>
       <r>   6.5126  0.0000</r>
       <r>   6.5128  0.0000</r>
       <r>   6.5327  0.0000</r>
       <r>   6.5780  0.0000</r>
       <r>   6.6076  0.0000</r>
       <r>   6.6520  0.0000</r>
       <r>   6.6949  0.0000</r>
       <r>   6.7057  0.0000</r>
       <r>   6.7183  0.0000</r>
       <r>   6.8096  0.0000</r>
       <r>   6.8866  0.0000</r>
       <r>   6.8868  0.0000</r>
       <r>   6.9455  0.0000</r>
       <r>   7.0783  0.0000</r>
       <r>   7.0847  0.0000</r>
      </set>
      <set comment="kpoint 5">
       <r> -27.4958  1.0000</r>
       <r> -27.3418  1.0000</r>
       <r> -27.3325  1.0000</r>
       <r> -27.3324  1.0000</r>
       <r> -27.3166  1.0000</r>
       <r> -27.3161  1.0000</r>
       <r> -27.3128  1.0000</r>
       <r> -27.3127  1.0000</r>
       <r> -27.3101  1.0000</r>
       <r> -27.3100  1.0000</r>
       <r> -27.3081  1.0000</r>
       <r> -27.3080  1.0000</r>
       <r> -27.3076  1.0000</r>
       <r> -27.3076  1.0000</r>
       <r> -27.2733  1.0000</r>
       <r> -27.2731  1.0000</r>
       <r> -27.2718  1.0000</r>
       <r> -27.2707  1.0000</r>
       <r> -27.2700  1.0000</r>
       <r> -27.2698  1.0000</r>
       <r> -27.2520  1.0000</r>
       <r> -27.2519  1.0000</r>
       <r> -27.2518  1.0000</r>
       <r> -27.2365  1.0000</r>
       <r> -27.2237  1.0000</r>
       <r> -27.2209  1.0000</r>
       <r> -27.2111  1.0000</r>
       <r> -27.2085  1.0000</r>
       <r> -27.1513  1.0000</r>
       <r> -27.1508  1.0000</r>
       <r> -27.1443  1.0000</r>
       <r> -27.1437  1.0000</r>
       <r> -27.1189  1.0000</r>
       <r> -27.1138  1.0000</r>
       <r> -27.1132  1.0000</r>
       <r> -27.1100  1.0000</r>
       <r> -27.1006  1.0000</r>
       <r> -27.0969  1.0000</r>
       <r> -27.0928  1.0000</r>
       <r> -27.0916  1.0000</r>
       <r> -27.0863  1.0000</r>
       <r> -27.0860  1.0000</r>
       <r> -27.0860  1.0000</r>
       <r> -27.0855  1.0000</r>
       <r> -27.0839  1.0000</r>
       <r> -27.0835  1.0000</r>
       <r> -27.0437  1.0000</r>
       <r> -27.0425  1.0000</r>
       <r> -27.0293  1.0000</r>
       <r> -27.0247  1.0000</r>
       <r> -27.0065  1.0000</r>
       <r> -26.9648  1.0000</r>
       <r> -26.9593  1.0000</r>
       <r> -26.9582  1.0000</r>
       <r> -26.9577  1.0000</r>
       <r> -26.9553  1.0000</r>
       <r> -26.9439  1.0000</r>
       <r> -26.9345  1.0000</r>
       <r> -26.9279  1.0000</r>
       <r> -26.9278  1.0000</r>
       <r> -26.9249  1.0000</r>
       <r> -26.9240  1.0000</r>
       <r> -26.9239  1.0000</r>
       <r> -26.9199  1.0000</r>
       <r> -26.9198  1.0000</r>
       <r> -26.9189  1.0000</r>
       <r> -26.9187  1.0000</r>
       <r> -26.9168  1.0000</r>
       <r> -26.9167  1.0000</r>
       <r> -26.9071  1.0000</r>
       <r> -26.9070  1.0000</r>
       <r> -26.9062  1.0000</r>
       <r> -26.8936  1.0000</r>
       <r> -26.8894  1.0000</r>
       <r> -26.8732  1.0000</r>
       <r> -26.8730  1.0000</r>
       <r> -26.8722  1.0000</r>
       <r> -26.8720  1.0000</r>
       <r> -26.8656  1.0000</r>
       <r> -26.8654  1.0000</r>
       <r> -26.8636  1.0000</r>
       <r> -26.8613  1.0000</r>
       <r> -26.8611  1.0000</r>
       <r> -26.8610  1.0000</r>
       <r> -26.8553  1.0000</r>
       <r> -26.8553  1.0000</r>
       <r> -26.8547  1.0000</r>
       <r> -26.8547  1.0000</r>
       <r> -26.8538  1.0000</r>
       <r> -26.8536  1.0000</r>
       <r> -26.8524  1.0000</r>
       <r> -26.8482  1.0000</r>
       <r> -26.8461  1.0000</r>
       <r> -26.8459  1.0000</r>
       <r> -26.8385  1.0000</r>
       <r> -26.7939  1.0000</r>
       <r> -26.7938  1.0000</r>
       <r> -26.7932  1.0000</r>
       <r> -26.7864  1.0000</r>
       <r> -26.7841  1.0000</r>
       <r> -26.7840  1.0000</r>
       <r> -26.7838  1.0000</r>
       <r> -26.7832  1.0000</r>
       <r> -26.7768  1.0000</r>
       <r> -26.7673  1.0000</r>
       <r> -26.7661  1.0000</r>
       <r> -26.7413  1.0000</r>
       <r> -26.7294  1.0000</r>
       <r>  -0.1480  1.0000</r>
       <r>   1.7309  1.0000</r>
       <r>   1.7312  1.0000</r>
       <r>   1.7834  1.0000</r>
       <r>   2.1057  1.0000</r>
       <r>   2.1187  1.0000</r>
       <r>   2.6410  1.0000</r>
       <r>   2.6597  1.0000</r>
       <r>   2.8541  1.0000</r>
       <r>   3.0442  1.0000</r>
       <r>   3.0444  1.0000</r>
       <r>   3.1891  1.0000</r>
       <r>   3.1893  1.0000</r>
       <r>   3.2010  1.0000</r>
       <r>   3.2013  1.0000</r>
       <r>   3.3230  1.0000</r>
       <r>   3.3411  1.0000</r>
       <r>   3.3414  1.0000</r>
       <r>   3.3498  1.0000</r>
       <r>   3.3502  1.0000</r>
       <r>   3.3552  1.0000</r>
       <r>   3.3555  1.0000</r>
       <r>   4.0859  1.0000</r>
       <r>   4.1696  1.0000</r>
       <r>   4.1791  1.0000</r>
       <r>   4.2236  1.0000</r>
       <r>   4.2324  1.0000</r>
       <r>   4.2402  1.0000</r>
       <r>   4.2608  1.0000</r>
       <r>   4.2701  1.0000</r>
       <r>   4.3398  1.0000</r>
       <r>   4.3731  1.0000</r>
       <r>   4.3834  1.0000</r>
       <r>   4.4134  1.0000</r>
       <r>   4.4401  1.0000</r>
       <r>   4.4564  1.0000</r>
       <r>   4.4573  1.0000</r>
       <r>   4.4592  1.0000</r>
       <r>   4.4600  1.0000</r>
       <r>   4.5337  1.0000</r>
       <r>   4.5636  1.0000</r>
       <r>   4.6534  1.0000</r>
       <r>   4.6615  1.0000</r>
       <r>   4.6729  1.0000</r>
       <r>   4.6842  1.0000</r>
       <r>   4.8260  1.0000</r>
       <r>   5.0969  1.0000</r>
       <r>   5.0976  1.0000</r>
       <r>   5.1050  1.0000</r>
       <r>   5.1058  1.0000</r>
       <r>   5.2255  1.0000</r>
       <r>   5.2266  1.0000</r>
       <r>   5.2488  1.0000</r>
       <r>   5.2625  1.0000</r>
       <r>   5.2636  1.0000</r>
       <r>   5.2638  1.0000</r>
       <r>   5.2647  1.0000</r>
       <r>   5.2675  1.0000</r>
       <r>   5.2742  1.0000</r>
       <r>   5.2930  1.0000</r>
       <r>   5.3178  1.0000</r>
       <r>   5.3187  1.0000</r>
       <r>   5.3209  1.0000</r>
       <r>   5.3218  1.0000</r>
       <r>   5.3224  1.0000</r>
       <r>   5.3439  1.0000</r>
       <r>   5.3451  1.0000</r>
       <r>   5.3796  1.0000</r>
       <r>   5.7247  1.0000</r>
       <r>   5.7249  1.0000</r>
       <r>   5.7283  1.0000</r>
       <r>   5.7286  1.0000</r>
       <r>   6.0235  0.0000</r>
       <r>   6.0261  0.0000</r>
       <r>   6.1014  0.0000</r>
       <r>   6.1475  0.0000</r>
       <r>   6.2667  0.0000</r>
       <r>   6.3160  0.0000</r>
       <r>   6.3895  0.0000</r>
       <r>   6.3900  0.0000</r>
       <r>   6.3903  0.0000</r>
       <r>   6.3907  0.0000</r>
       <r>   6.4228  0.0000</r>
       <r>   6.4233  0.0000</r>
       <r>   6.4485  0.0000</r>
       <r>   6.4921  0.0000</r>
       <r>   6.4941  0.0000</r>
       <r>   6.5429  0.0000</r>
       <r>   6.5604  0.0000</r>
       <r>   6.5627  0.0000</r>
       <r>   6.5632  0.0000</r>
       <r>   6.5674  0.0000</r>
       <r>   6.5675  0.0000</r>
       <r>   6.5931  0.0000</r>
       <r>   6.6045  0.0000</r>
       <r>   6.6051  0.0000</r>
       <r>   6.6441  0.0000</r>
       <r>   6.6442  0.0000</r>
       <r>   6.7013  0.0000</r>
       <r>   6.7029  0.0000</r>
       <r>   6.7253  0.0000</r>
       <r>   6.7356  0.0000</r>
       <r>   6.7424  0.0000</r>
       <r>   6.7685  0.0000</r>
       <r>   6.7753  0.0000</r>
       <r>   6.7798  0.0000</r>
       <r>   6.7887  0.0000</r>
       <r>   6.7893  0.0000</r>
      </set>
      <set comment="kpoint 6">
       <r> -27.4858  1.0000</r>
       <r> -27.3609  1.0000</r>
       <r> -27.3609  1.0000</r>
       <r> -27.3462  1.0000</r>
       <r> -27.3461  1.0000</r>
       <r> -27.3460  1.0000</r>
       <r> -27.3460  1.0000</r>
       <r> -27.3194  1.0000</r>
       <r> -27.3194  1.0000</r>
       <r> -27.3116  1.0000</r>
       <r> -27.3116  1.0000</r>
       <r> -27.2899  1.0000</r>
       <r> -27.2898  1.0000</r>
       <r> -27.2896  1.0000</r>
       <r> -27.2895  1.0000</r>
       <r> -27.2858  1.0000</r>
       <r> -27.2854  1.0000</r>
       <r> -27.2550  1.0000</r>
       <r> -27.2549  1.0000</r>
       <r> -27.2396  1.0000</r>
       <r> -27.2328  1.0000</r>
       <r> -27.2326  1.0000</r>
       <r> -27.2325  1.0000</r>
       <r> -27.2324  1.0000</r>
       <r> -27.2289  1.0000</r>
       <r> -27.2287  1.0000</r>
       <r> -27.2172  1.0000</r>
       <r> -27.1778  1.0000</r>
       <r> -27.1775  1.0000</r>
       <r> -27.1482  1.0000</r>
       <r> -27.1476  1.0000</r>
       <r> -27.1314  1.0000</r>
       <r> -27.1313  1.0000</r>
       <r> -27.1300  1.0000</r>
       <r> -27.1292  1.0000</r>
       <r> -27.1218  1.0000</r>
       <r> -27.1120  1.0000</r>
       <r> -27.0853  1.0000</r>
       <r> -27.0852  1.0000</r>
       <r> -27.0836  1.0000</r>
       <r> -27.0811  1.0000</r>
       <r> -27.0810  1.0000</r>
       <r> -27.0656  1.0000</r>
       <r> -27.0653  1.0000</r>
       <r> -27.0650  1.0000</r>
       <r> -27.0647  1.0000</r>
       <r> -27.0561  1.0000</r>
       <r> -27.0050  1.0000</r>
       <r> -26.9999  1.0000</r>
       <r> -26.9869  1.0000</r>
       <r> -26.9867  1.0000</r>
       <r> -26.9704  1.0000</r>
       <r> -26.9702  1.0000</r>
       <r> -26.9568  1.0000</r>
       <r> -26.9568  1.0000</r>
       <r> -26.9395  1.0000</r>
       <r> -26.9389  1.0000</r>
       <r> -26.9388  1.0000</r>
       <r> -26.9386  1.0000</r>
       <r> -26.9385  1.0000</r>
       <r> -26.9301  1.0000</r>
       <r> -26.9293  1.0000</r>
       <r> -26.9291  1.0000</r>
       <r> -26.9290  1.0000</r>
       <r> -26.9288  1.0000</r>
       <r> -26.9230  1.0000</r>
       <r> -26.9226  1.0000</r>
       <r> -26.9108  1.0000</r>
       <r> -26.9107  1.0000</r>
       <r> -26.9037  1.0000</r>
       <r> -26.9036  1.0000</r>
       <r> -26.9034  1.0000</r>
       <r> -26.9032  1.0000</r>
       <r> -26.8808  1.0000</r>
       <r> -26.8805  1.0000</r>
       <r> -26.8739  1.0000</r>
       <r> -26.8738  1.0000</r>
       <r> -26.8737  1.0000</r>
       <r> -26.8736  1.0000</r>
       <r> -26.8715  1.0000</r>
       <r> -26.8648  1.0000</r>
       <r> -26.8646  1.0000</r>
       <r> -26.8646  1.0000</r>
       <r> -26.8644  1.0000</r>
       <r> -26.8576  1.0000</r>
       <r> -26.8576  1.0000</r>
       <r> -26.8557  1.0000</r>
       <r> -26.8557  1.0000</r>
       <r> -26.8458  1.0000</r>
       <r> -26.8401  1.0000</r>
       <r> -26.8399  1.0000</r>
       <r> -26.8399  1.0000</r>
       <r> -26.8397  1.0000</r>
       <r> -26.8369  1.0000</r>
       <r> -26.8365  1.0000</r>
       <r> -26.8069  1.0000</r>
       <r> -26.8068  1.0000</r>
       <r> -26.8048  1.0000</r>
       <r> -26.8047  1.0000</r>
       <r> -26.7939  1.0000</r>
       <r> -26.7938  1.0000</r>
       <r> -26.7882  1.0000</r>
       <r> -26.7880  1.0000</r>
       <r> -26.7720  1.0000</r>
       <r> -26.7666  1.0000</r>
       <r> -26.7664  1.0000</r>
       <r> -26.7609  1.0000</r>
       <r> -26.7320  1.0000</r>
       <r>  -0.0228  1.0000</r>
       <r>   1.5516  1.0000</r>
       <r>   1.5520  1.0000</r>
       <r>   1.8357  1.0000</r>
       <r>   1.8360  1.0000</r>
       <r>   2.5091  1.0000</r>
       <r>   2.5093  1.0000</r>
       <r>   2.9428  1.0000</r>
       <r>   2.9429  1.0000</r>
       <r>   2.9432  1.0000</r>
       <r>   2.9434  1.0000</r>
       <r>   3.1140  1.0000</r>
       <r>   3.1143  1.0000</r>
       <r>   3.3824  1.0000</r>
       <r>   3.3825  1.0000</r>
       <r>   3.3827  1.0000</r>
       <r>   3.3832  1.0000</r>
       <r>   3.4126  1.0000</r>
       <r>   3.4128  1.0000</r>
       <r>   3.4129  1.0000</r>
       <r>   3.4134  1.0000</r>
       <r>   3.4185  1.0000</r>
       <r>   4.0491  1.0000</r>
       <r>   4.0493  1.0000</r>
       <r>   4.1711  1.0000</r>
       <r>   4.2061  1.0000</r>
       <r>   4.2166  1.0000</r>
       <r>   4.2172  1.0000</r>
       <r>   4.2419  1.0000</r>
       <r>   4.2424  1.0000</r>
       <r>   4.2487  1.0000</r>
       <r>   4.2526  1.0000</r>
       <r>   4.2652  1.0000</r>
       <r>   4.2660  1.0000</r>
       <r>   4.2843  1.0000</r>
       <r>   4.2848  1.0000</r>
       <r>   4.3130  1.0000</r>
       <r>   4.3137  1.0000</r>
       <r>   4.4009  1.0000</r>
       <r>   4.5180  1.0000</r>
       <r>   4.5190  1.0000</r>
       <r>   4.5844  1.0000</r>
       <r>   4.6662  1.0000</r>
       <r>   4.8149  1.0000</r>
       <r>   4.9689  1.0000</r>
       <r>   4.9697  1.0000</r>
       <r>   5.1866  1.0000</r>
       <r>   5.1880  1.0000</r>
       <r>   5.2188  1.0000</r>
       <r>   5.2193  1.0000</r>
       <r>   5.2199  1.0000</r>
       <r>   5.2207  1.0000</r>
       <r>   5.2346  1.0000</r>
       <r>   5.2348  1.0000</r>
       <r>   5.2426  1.0000</r>
       <r>   5.2435  1.0000</r>
       <r>   5.3137  1.0000</r>
       <r>   5.3154  1.0000</r>
       <r>   5.3158  1.0000</r>
       <r>   5.3160  1.0000</r>
       <r>   5.3197  1.0000</r>
       <r>   5.3209  1.0000</r>
       <r>   5.3866  1.0000</r>
       <r>   5.3877  1.0000</r>
       <r>   5.3879  1.0000</r>
       <r>   5.3892  1.0000</r>
       <r>   5.4081  1.0000</r>
       <r>   5.4090  1.0000</r>
       <r>   5.7332  1.0000</r>
       <r>   5.7337  1.0000</r>
       <r>   5.7399  1.0000</r>
       <r>   5.7400  1.0000</r>
       <r>   5.9263  1.0000</r>
       <r>   5.9286  1.0000</r>
       <r>   6.1034  0.0000</r>
       <r>   6.1106  0.0000</r>
       <r>   6.3306  0.0000</r>
       <r>   6.3314  0.0000</r>
       <r>   6.3318  0.0000</r>
       <r>   6.3325  0.0000</r>
       <r>   6.3346  0.0000</r>
       <r>   6.3352  0.0000</r>
       <r>   6.3354  0.0000</r>
       <r>   6.3361  0.0000</r>
       <r>   6.3639  0.0000</r>
       <r>   6.3833  0.0000</r>
       <r>   6.3906  0.0000</r>
       <r>   6.3944  0.0000</r>
       <r>   6.3956  0.0000</r>
       <r>   6.4183  0.0000</r>
       <r>   6.4188  0.0000</r>
       <r>   6.4861  0.0000</r>
       <r>   6.5582  0.0000</r>
       <r>   6.5582  0.0000</r>
       <r>   6.6714  0.0000</r>
       <r>   6.6726  0.0000</r>
       <r>   6.6919  0.0000</r>
       <r>   6.6929  0.0000</r>
       <r>   6.7161  0.0000</r>
       <r>   6.7162  0.0000</r>
       <r>   6.7275  0.0000</r>
       <r>   6.7290  0.0000</r>
       <r>   6.8021  0.0000</r>
       <r>   6.8024  0.0000</r>
       <r>   6.8027  0.0000</r>
       <r>   6.8030  0.0000</r>
       <r>   6.8447  0.0000</r>
       <r>   6.8472  0.0000</r>
      </set>
      <set comment="kpoint 7">
       <r> -27.4662  1.0000</r>
       <r> -27.4022  1.0000</r>
       <r> -27.3727  1.0000</r>
       <r> -27.3683  1.0000</r>
       <r> -27.3682  1.0000</r>
       <r> -27.3516  1.0000</r>
       <r> -27.3515  1.0000</r>
       <r> -27.3350  1.0000</r>
       <r> -27.3350  1.0000</r>
       <r> -27.3149  1.0000</r>
       <r> -27.3149  1.0000</r>
       <r> -27.3049  1.0000</r>
       <r> -27.3048  1.0000</r>
       <r> -27.2941  1.0000</r>
       <r> -27.2847  1.0000</r>
       <r> -27.2743  1.0000</r>
       <r> -27.2742  1.0000</r>
       <r> -27.2638  1.0000</r>
       <r> -27.2567  1.0000</r>
       <r> -27.2502  1.0000</r>
       <r> -27.2187  1.0000</r>
[...]
       <r>   3.2996  1.0000</r>
       <r>   3.3680  1.0000</r>
       <r>   3.4031  1.0000</r>
       <r>   3.4045  1.0000</r>
       <r>   3.4493  1.0000</r>
       <r>   3.4702  1.0000</r>
       <r>   3.5341  1.0000</r>
       <r>   3.5453  1.0000</r>
       <r>   3.5494  1.0000</r>
       <r>   3.5501  1.0000</r>
       <r>   3.5737  1.0000</r>
       <r>   3.5758  1.0000</r>
       <r>   3.7085  1.0000</r>
       <r>   3.7102  1.0000</r>
       <r>   3.7749  1.0000</r>
       <r>   3.8421  1.0000</r>
       <r>   3.8837  1.0000</r>
       <r>   4.0513  1.0000</r>
       <r>   4.0607  1.0000</r>
       <r>   4.1316  1.0000</r>
       <r>   4.1322  1.0000</r>
       <r>   4.1330  1.0000</r>
       <r>   4.1375  1.0000</r>
       <r>   4.1411  1.0000</r>
       <r>   4.2084  1.0000</r>
       <r>   4.2497  1.0000</r>
       <r>   4.2603  1.0000</r>
       <r>   4.4062  1.0000</r>
       <r>   4.6194  1.0000</r>
       <r>   4.6243  1.0000</r>
       <r>   4.6276  1.0000</r>
       <r>   4.6403  1.0000</r>
       <r>   4.7216  1.0000</r>
       <r>   4.7604  1.0000</r>
       <r>   4.8221  1.0000</r>
       <r>   4.8252  1.0000</r>
       <r>   4.8298  1.0000</r>
       <r>   4.8428  1.0000</r>
       <r>   4.8669  1.0000</r>
       <r>   4.8841  1.0000</r>
       <r>   4.9305  1.0000</r>
       <r>   4.9434  1.0000</r>
       <r>   4.9515  1.0000</r>
       <r>   5.0152  1.0000</r>
       <r>   5.0157  1.0000</r>
       <r>   5.0735  1.0000</r>
       <r>   5.0745  1.0000</r>
       <r>   5.0752  1.0000</r>
       <r>   5.0958  1.0000</r>
       <r>   5.2167  1.0000</r>
       <r>   5.2289  1.0000</r>
       <r>   5.2464  1.0000</r>
       <r>   5.2746  1.0000</r>
       <r>   5.2764  1.0000</r>
       <r>   5.2854  1.0000</r>
       <r>   5.2896  1.0000</r>
       <r>   5.3682  1.0000</r>
       <r>   5.3714  1.0000</r>
       <r>   5.4981  1.0000</r>
       <r>   5.6050  1.0000</r>
       <r>   5.9201  1.0000</r>
       <r>   5.9364  0.9998</r>
       <r>   5.9819  0.0016</r>
       <r>   5.9975  0.0000</r>
       <r>   6.0934  0.0000</r>
       <r>   6.0993  0.0000</r>
       <r>   6.0997  0.0000</r>
       <r>   6.1027  0.0000</r>
       <r>   6.1724  0.0000</r>
       <r>   6.1833  0.0000</r>
       <r>   6.1842  0.0000</r>
       <r>   6.1917  0.0000</r>
       <r>   6.2185  0.0000</r>
       <r>   6.2596  0.0000</r>
       <r>   6.2743  0.0000</r>
       <r>   6.2777  0.0000</r>
       <r>   6.3071  0.0000</r>
       <r>   6.3779  0.0000</r>
       <r>   6.3839  0.0000</r>
       <r>   6.4518  0.0000</r>
       <r>   6.4672  0.0000</r>
       <r>   6.4912  0.0000</r>
       <r>   6.5085  0.0000</r>
       <r>   6.5221  0.0000</r>
       <r>   6.5929  0.0000</r>
       <r>   6.6309  0.0000</r>
       <r>   6.6342  0.0000</r>
       <r>   6.6419  0.0000</r>
       <r>   6.6463  0.0000</r>
       <r>   6.6918  0.0000</r>
       <r>   6.7018  0.0000</r>
       <r>   6.7132  0.0000</r>
       <r>   6.7550  0.0000</r>
       <r>   6.8144  0.0000</r>
       <r>   6.8184  0.0000</r>
       <r>   6.8326  0.0000</r>
       <r>   6.8524  0.0000</r>
       <r>   6.8990  0.0000</r>
       <r>   6.9170  0.0000</r>
       <r>   6.9308  0.0000</r>
      </set>
      <set comment="kpoint 122">
       <r> -27.4083  1.0000</r>
       <r> -27.3784  1.0000</r>
       <r> -27.3658  1.0000</r>
       <r> -27.3615  1.0000</r>
       <r> -27.3535  1.0000</r>
       <r> -27.3484  1.0000</r>
       <r> -27.3406  1.0000</r>
       <r> -27.3368  1.0000</r>
       <r> -27.3333  1.0000</r>
       <r> -27.3255  1.0000</r>
       <r> -27.3222  1.0000</r>
       <r> -27.3171  1.0000</r>
       <r> -27.3157  1.0000</r>
       <r> -27.3136  1.0000</r>
       <r> -27.3085  1.0000</r>
       <r> -27.3072  1.0000</r>
       <r> -27.3056  1.0000</r>
       <r> -27.2860  1.0000</r>
       <r> -27.2730  1.0000</r>
       <r> -27.2710  1.0000</r>
       <r> -27.2641  1.0000</r>
       <r> -27.2577  1.0000</r>
       <r> -27.2309  1.0000</r>
       <r> -27.2270  1.0000</r>
       <r> -27.2234  1.0000</r>
       <r> -27.2183  1.0000</r>
       <r> -27.2112  1.0000</r>
       <r> -27.1875  1.0000</r>
       <r> -27.1872  1.0000</r>
       <r> -27.1476  1.0000</r>
       <r> -27.1195  1.0000</r>
       <r> -27.0957  1.0000</r>
       <r> -27.0955  1.0000</r>
       <r> -27.0918  1.0000</r>
       <r> -27.0903  1.0000</r>
       <r> -27.0859  1.0000</r>
       <r> -27.0828  1.0000</r>
       <r> -27.0745  1.0000</r>
       <r> -27.0556  1.0000</r>
       <r> -27.0552  1.0000</r>
       <r> -27.0473  1.0000</r>
       <r> -27.0365  1.0000</r>
       <r> -27.0311  1.0000</r>
       <r> -27.0263  1.0000</r>
       <r> -27.0217  1.0000</r>
       <r> -27.0099  1.0000</r>
       <r> -27.0058  1.0000</r>
       <r> -27.0043  1.0000</r>
       <r> -26.9920  1.0000</r>
       <r> -26.9910  1.0000</r>
       <r> -26.9877  1.0000</r>
       <r> -26.9742  1.0000</r>
       <r> -26.9728  1.0000</r>
       <r> -26.9712  1.0000</r>
       <r> -26.9705  1.0000</r>
       <r> -26.9702  1.0000</r>
       <r> -26.9667  1.0000</r>
       <r> -26.9645  1.0000</r>
       <r> -26.9608  1.0000</r>
       <r> -26.9607  1.0000</r>
       <r> -26.9537  1.0000</r>
       <r> -26.9522  1.0000</r>
       <r> -26.9437  1.0000</r>
       <r> -26.9381  1.0000</r>
       <r> -26.9323  1.0000</r>
       <r> -26.9246  1.0000</r>
       <r> -26.9173  1.0000</r>
       <r> -26.9108  1.0000</r>
       <r> -26.9082  1.0000</r>
       <r> -26.9075  1.0000</r>
       <r> -26.9021  1.0000</r>
       <r> -26.9015  1.0000</r>
       <r> -26.8984  1.0000</r>
       <r> -26.8937  1.0000</r>
       <r> -26.8879  1.0000</r>
       <r> -26.8854  1.0000</r>
       <r> -26.8851  1.0000</r>
       <r> -26.8838  1.0000</r>
       <r> -26.8800  1.0000</r>
       <r> -26.8784  1.0000</r>
       <r> -26.8731  1.0000</r>
       <r> -26.8729  1.0000</r>
       <r> -26.8609  1.0000</r>
       <r> -26.8602  1.0000</r>
       <r> -26.8593  1.0000</r>
       <r> -26.8520  1.0000</r>
       <r> -26.8465  1.0000</r>
       <r> -26.8390  1.0000</r>
       <r> -26.8371  1.0000</r>
       <r> -26.8369  1.0000</r>
       <r> -26.8357  1.0000</r>
       <r> -26.8324  1.0000</r>
       <r> -26.8284  1.0000</r>
       <r> -26.8278  1.0000</r>
       <r> -26.8270  1.0000</r>
       <r> -26.8236  1.0000</r>
       <r> -26.8195  1.0000</r>
       <r> -26.8168  1.0000</r>
       <r> -26.8149  1.0000</r>
       <r> -26.8089  1.0000</r>
       <r> -26.8020  1.0000</r>
       <r> -26.7879  1.0000</r>
       <r> -26.7852  1.0000</r>
       <r> -26.7835  1.0000</r>
       <r> -26.7722  1.0000</r>
       <r> -26.7697  1.0000</r>
       <r> -26.7633  1.0000</r>
       <r> -26.7499  1.0000</r>
       <r>   0.5485  1.0000</r>
       <r>   0.9378  1.0000</r>
       <r>   1.3179  1.0000</r>
       <r>   1.6592  1.0000</r>
       <r>   1.6738  1.0000</r>
       <r>   1.9876  1.0000</r>
       <r>   2.5976  1.0000</r>
       <r>   2.8119  1.0000</r>
       <r>   3.0557  1.0000</r>
       <r>   3.1399  1.0000</r>
       <r>   3.1876  1.0000</r>
       <r>   3.2653  1.0000</r>
       <r>   3.3044  1.0000</r>
       <r>   3.3270  1.0000</r>
       <r>   3.3301  1.0000</r>
       <r>   3.4478  1.0000</r>
       <r>   3.6811  1.0000</r>
       <r>   3.7871  1.0000</r>
       <r>   3.7891  1.0000</r>
       <r>   3.8107  1.0000</r>
       <r>   3.8535  1.0000</r>
       <r>   3.8771  1.0000</r>
       <r>   3.8812  1.0000</r>
       <r>   3.8993  1.0000</r>
       <r>   3.9064  1.0000</r>
       <r>   3.9867  1.0000</r>
       <r>   4.0140  1.0000</r>
       <r>   4.0670  1.0000</r>
       <r>   4.0931  1.0000</r>
       <r>   4.2009  1.0000</r>
       <r>   4.2085  1.0000</r>
       <r>   4.2504  1.0000</r>
       <r>   4.2539  1.0000</r>
       <r>   4.2581  1.0000</r>
       <r>   4.3061  1.0000</r>
       <r>   4.3614  1.0000</r>
       <r>   4.5798  1.0000</r>
       <r>   4.5815  1.0000</r>
       <r>   4.6343  1.0000</r>
       <r>   4.6623  1.0000</r>
       <r>   4.6735  1.0000</r>
       <r>   4.6813  1.0000</r>
       <r>   4.7836  1.0000</r>
       <r>   4.7997  1.0000</r>
       <r>   4.8141  1.0000</r>
       <r>   4.8522  1.0000</r>
       <r>   4.8613  1.0000</r>
       <r>   4.8629  1.0000</r>
       <r>   4.8664  1.0000</r>
       <r>   4.9006  1.0000</r>
       <r>   4.9280  1.0000</r>
       <r>   4.9801  1.0000</r>
       <r>   5.0337  1.0000</r>
       <r>   5.0448  1.0000</r>
       <r>   5.0546  1.0000</r>
       <r>   5.1060  1.0000</r>
       <r>   5.1548  1.0000</r>
       <r>   5.1668  1.0000</r>
       <r>   5.1899  1.0000</r>
       <r>   5.1939  1.0000</r>
       <r>   5.2286  1.0000</r>
       <r>   5.2644  1.0000</r>
       <r>   5.3327  1.0000</r>
       <r>   5.3539  1.0000</r>
       <r>   5.5040  1.0000</r>
       <r>   5.5410  1.0000</r>
       <r>   5.6075  1.0000</r>
       <r>   5.6981  1.0000</r>
       <r>   5.7052  1.0000</r>
       <r>   5.7793  1.0000</r>
       <r>   5.9287  1.0000</r>
       <r>   5.9784  0.0071</r>
       <r>   6.0753  0.0000</r>
       <r>   6.1241  0.0000</r>
       <r>   6.1383  0.0000</r>
       <r>   6.1513  0.0000</r>
       <r>   6.1823  0.0000</r>
       <r>   6.1833  0.0000</r>
       <r>   6.1848  0.0000</r>
       <r>   6.2535  0.0000</r>
       <r>   6.2555  0.0000</r>
       <r>   6.2658  0.0000</r>
       <r>   6.2830  0.0000</r>
       <r>   6.3073  0.0000</r>
       <r>   6.3348  0.0000</r>
       <r>   6.3767  0.0000</r>
       <r>   6.4182  0.0000</r>
       <r>   6.4394  0.0000</r>
       <r>   6.4408  0.0000</r>
       <r>   6.4809  0.0000</r>
       <r>   6.5162  0.0000</r>
       <r>   6.5211  0.0000</r>
       <r>   6.5243  0.0000</r>
       <r>   6.5784  0.0000</r>
       <r>   6.5887  0.0000</r>
       <r>   6.6638  0.0000</r>
       <r>   6.7070  0.0000</r>
       <r>   6.7344  0.0000</r>
       <r>   6.7491  0.0000</r>
       <r>   6.7779  0.0000</r>
       <r>   6.7944  0.0000</r>
       <r>   6.8167  0.0000</r>
       <r>   6.8228  0.0000</r>
       <r>   6.8441  0.0000</r>
       <r>   6.8451  0.0000</r>
       <r>   6.8743  0.0000</r>
       <r>   6.9213  0.0000</r>
       <r>   6.9432  0.0000</r>
      </set>
      <set comment="kpoint 123">
       <r> -27.4225  1.0000</r>
       <r> -27.3622  1.0000</r>
       <r> -27.3621  1.0000</r>
       <r> -27.3485  1.0000</r>
       <r> -27.3440  1.0000</r>
       <r> -27.3439  1.0000</r>
       <r> -27.3397  1.0000</r>
       <r> -27.3396  1.0000</r>
       <r> -27.3265  1.0000</r>
       <r> -27.3263  1.0000</r>
       <r> -27.3194  1.0000</r>
       <r> -27.3194  1.0000</r>
       <r> -27.3192  1.0000</r>
       <r> -27.3189  1.0000</r>
       <r> -27.3077  1.0000</r>
       <r> -27.2895  1.0000</r>
       <r> -27.2789  1.0000</r>
       <r> -27.2617  1.0000</r>
       <r> -27.2616  1.0000</r>
       <r> -27.2614  1.0000</r>
       <r> -27.2557  1.0000</r>
       <r> -27.2497  1.0000</r>
       <r> -27.2303  1.0000</r>
       <r> -27.2090  1.0000</r>
       <r> -27.2088  1.0000</r>
       <r> -27.2022  1.0000</r>
       <r> -27.2007  1.0000</r>
       <r> -27.2006  1.0000</r>
       <r> -27.1585  1.0000</r>
       <r> -27.1581  1.0000</r>
       <r> -27.1479  1.0000</r>
       <r> -27.1295  1.0000</r>
       <r> -27.1244  1.0000</r>
       <r> -27.1213  1.0000</r>
       <r> -27.1146  1.0000</r>
       <r> -27.1145  1.0000</r>
       <r> -27.0950  1.0000</r>
       <r> -27.0948  1.0000</r>
       <r> -27.0742  1.0000</r>
       <r> -27.0737  1.0000</r>
       <r> -27.0692  1.0000</r>
       <r> -27.0689  1.0000</r>
       <r> -27.0297  1.0000</r>
       <r> -27.0295  1.0000</r>
       <r> -27.0247  1.0000</r>
       <r> -27.0243  1.0000</r>
       <r> -27.0212  1.0000</r>
       <r> -27.0209  1.0000</r>
       <r> -27.0073  1.0000</r>
       <r> -27.0044  1.0000</r>
       <r> -26.9991  1.0000</r>
       <r> -26.9913  1.0000</r>
       <r> -26.9911  1.0000</r>
       <r> -26.9791  1.0000</r>
       <r> -26.9782  1.0000</r>
       <r> -26.9574  1.0000</r>
       <r> -26.9573  1.0000</r>
       <r> -26.9537  1.0000</r>
       <r> -26.9537  1.0000</r>
       <r> -26.9476  1.0000</r>
       <r> -26.9430  1.0000</r>
       <r> -26.9428  1.0000</r>
       <r> -26.9399  1.0000</r>
       <r> -26.9329  1.0000</r>
       <r> -26.9328  1.0000</r>
       <r> -26.9235  1.0000</r>
       <r> -26.9177  1.0000</r>
       <r> -26.9101  1.0000</r>
       <r> -26.9056  1.0000</r>
       <r> -26.9054  1.0000</r>
       <r> -26.9034  1.0000</r>
       <r> -26.8939  1.0000</r>
       <r> -26.8936  1.0000</r>
       <r> -26.8921  1.0000</r>
       <r> -26.8918  1.0000</r>
       <r> -26.8865  1.0000</r>
       <r> -26.8862  1.0000</r>
       <r> -26.8724  1.0000</r>
       <r> -26.8718  1.0000</r>
       <r> -26.8655  1.0000</r>
       <r> -26.8653  1.0000</r>
       <r> -26.8618  1.0000</r>
       <r> -26.8616  1.0000</r>
       <r> -26.8590  1.0000</r>
       <r> -26.8586  1.0000</r>
       <r> -26.8445  1.0000</r>
       <r> -26.8361  1.0000</r>
       <r> -26.8359  1.0000</r>
       <r> -26.8338  1.0000</r>
       <r> -26.8284  1.0000</r>
       <r> -26.8281  1.0000</r>
       <r> -26.8269  1.0000</r>
       <r> -26.8269  1.0000</r>
       <r> -26.8264  1.0000</r>
       <r> -26.8263  1.0000</r>
       <r> -26.8221  1.0000</r>
       <r> -26.8161  1.0000</r>
       <r> -26.8160  1.0000</r>
       <r> -26.8097  1.0000</r>
       <r> -26.8096  1.0000</r>
       <r> -26.7972  1.0000</r>
       <r> -26.7970  1.0000</r>
       <r> -26.7809  1.0000</r>
       <r> -26.7807  1.0000</r>
       <r> -26.7690  1.0000</r>
       <r> -26.7574  1.0000</r>
       <r> -26.7554  1.0000</r>
       <r> -26.7429  1.0000</r>
       <r>   0.3122  1.0000</r>
       <r>   0.7125  1.0000</r>
       <r>   1.7995  1.0000</r>
       <r>   1.8000  1.0000</r>
       <r>   2.0962  1.0000</r>
       <r>   2.0966  1.0000</r>
       <r>   2.6610  1.0000</r>
       <r>   2.6611  1.0000</r>
       <r>   2.8450  1.0000</r>
       <r>   2.8451  1.0000</r>
       <r>   2.9431  1.0000</r>
       <r>   3.1011  1.0000</r>
       <r>   3.1013  1.0000</r>
       <r>   3.1406  1.0000</r>
       <r>   3.1408  1.0000</r>
       <r>   3.2533  1.0000</r>
       <r>   3.8312  1.0000</r>
       <r>   3.8319  1.0000</r>
       <r>   3.8814  1.0000</r>
       <r>   3.8822  1.0000</r>
       <r>   3.9692  1.0000</r>
       <r>   3.9701  1.0000</r>
       <r>   3.9968  1.0000</r>
       <r>   3.9977  1.0000</r>
       <r>   4.0380  1.0000</r>
       <r>   4.0439  1.0000</r>
       <r>   4.1866  1.0000</r>
       <r>   4.1870  1.0000</r>
       <r>   4.2111  1.0000</r>
       <r>   4.2322  1.0000</r>
       <r>   4.2331  1.0000</r>
       <r>   4.2421  1.0000</r>
       <r>   4.2571  1.0000</r>
       <r>   4.2724  1.0000</r>
       <r>   4.4656  1.0000</r>
       <r>   4.4923  1.0000</r>
       <r>   4.5495  1.0000</r>
       <r>   4.5499  1.0000</r>
       <r>   4.5785  1.0000</r>
       <r>   4.5789  1.0000</r>
       <r>   4.6796  1.0000</r>
       <r>   4.6829  1.0000</r>
       <r>   4.7538  1.0000</r>
       <r>   4.7542  1.0000</r>
       <r>   4.7824  1.0000</r>
       <r>   4.7846  1.0000</r>
       <r>   4.7851  1.0000</r>
       <r>   4.7985  1.0000</r>
       <r>   4.7992  1.0000</r>
       <r>   4.8167  1.0000</r>
       <r>   4.8797  1.0000</r>
       <r>   4.8880  1.0000</r>
       <r>   4.8886  1.0000</r>
       <r>   4.8953  1.0000</r>
       <r>   4.9859  1.0000</r>
       <r>   5.1264  1.0000</r>
       <r>   5.1854  1.0000</r>
       <r>   5.1861  1.0000</r>
       <r>   5.2898  1.0000</r>
       <r>   5.2910  1.0000</r>
       <r>   5.3112  1.0000</r>
       <r>   5.3127  1.0000</r>
       <r>   5.4301  1.0000</r>
       <r>   5.4316  1.0000</r>
       <r>   5.5137  1.0000</r>
       <r>   5.5145  1.0000</r>
       <r>   5.6053  1.0000</r>
       <r>   5.6062  1.0000</r>
       <r>   5.7938  1.0000</r>
       <r>   5.8711  1.0000</r>
       <r>   5.8922  1.0000</r>
       <r>   6.0155  0.0000</r>
       <r>   6.0232  0.0000</r>
       <r>   6.0564  0.0000</r>
       <r>   6.1085  0.0000</r>
       <r>   6.1225  0.0000</r>
       <r>   6.1495  0.0000</r>
       <r>   6.2412  0.0000</r>
       <r>   6.2427  0.0000</r>
       <r>   6.2554  0.0000</r>
       <r>   6.2558  0.0000</r>
       <r>   6.2773  0.0000</r>
       <r>   6.3413  0.0000</r>
       <r>   6.3418  0.0000</r>
       <r>   6.3480  0.0000</r>
       <r>   6.3487  0.0000</r>
       <r>   6.4117  0.0000</r>
       <r>   6.4129  0.0000</r>
       <r>   6.4836  0.0000</r>
       <r>   6.5424  0.0000</r>
       <r>   6.5429  0.0000</r>
       <r>   6.5493  0.0000</r>
       <r>   6.5497  0.0000</r>
       <r>   6.6417  0.0000</r>
       <r>   6.7045  0.0000</r>
       <r>   6.7052  0.0000</r>
       <r>   6.7066  0.0000</r>
       <r>   6.7341  0.0000</r>
       <r>   6.7703  0.0000</r>
       <r>   6.7711  0.0000</r>
       <r>   6.7913  0.0000</r>
       <r>   6.7921  0.0000</r>
       <r>   6.8121  0.0000</r>
       <r>   6.8131  0.0000</r>
       <r>   6.8933  0.0000</r>
       <r>   6.9012  0.0000</r>
       <r>   6.9318  0.0000</r>
       <r>   6.9432  0.0000</r>
      </set>
     </set>
    </set>
   </array>
  </eigenvalues>
 </calculation>
 <structure name="finalpos" >
  <crystal>
   <varray name="basis" >
    <v>       8.82066710      0.02476544      0.00000000</v>
    <v>      -4.38888587      7.65130461      0.00000000</v>
    <v>       0.00000000      0.00000000      9.20747447</v>
   </varray>
   <i name="volume">    622.40965371</i>
   <varray name="rec_basis" >
    <v>       0.11318782      0.06492598      0.00000000</v>
    <v>      -0.00036636      0.13048652      0.00000000</v>
    <v>       0.00000000      0.00000000      0.10860741</v>
   </varray>
  </crystal>
  <varray name="positions" >
   <v>       0.10995913      0.22258994      0.12421573</v>
   <v>       0.44407673      0.22258994      0.12500000</v>
   <v>       0.77741006      0.22258994      0.12500000</v>
   <v>       0.11074339      0.55592327      0.12500000</v>
   <v>       0.44407673      0.55592327      0.12500000</v>
   <v>       0.77741006      0.55592327      0.12500000</v>
   <v>       0.11074339      0.88925661      0.12500000</v>
   <v>       0.44407673      0.88925661      0.12500000</v>
   <v>       0.77741006      0.88925661      0.12500000</v>
   <v>       0.11074339      0.22258994      0.62500000</v>
   <v>       0.44407673      0.22258994      0.62500000</v>
   <v>       0.77741006      0.22258994      0.62500000</v>
   <v>       0.11074339      0.55592327      0.62500000</v>
   <v>       0.44407673      0.55592327      0.62500000</v>
   <v>       0.77741006      0.55592327      0.62500000</v>
   <v>       0.11074339      0.88925661      0.62500000</v>
   <v>       0.44407673      0.88925661      0.62500000</v>
   <v>       0.77741006      0.88925661      0.62500000</v>
   <v>       0.22258994      0.11074339      0.37500000</v>
   <v>       0.55592327      0.11074339      0.37500000</v>
   <v>       0.88925661      0.11074339      0.37500000</v>
   <v>       0.22258994      0.44407673      0.37500000</v>
   <v>       0.55592327      0.44407673      0.37500000</v>
   <v>       0.88925661      0.44407673      0.37500000</v>
   <v>       0.22258994      0.77741006      0.37500000</v>
   <v>       0.55592327      0.77741006      0.37500000</v>
   <v>       0.88925661      0.77741006      0.37500000</v>
   <v>       0.22258994      0.11074339      0.87500000</v>
   <v>       0.55592327      0.11074339      0.87500000</v>
   <v>       0.88925661      0.11074339      0.87500000</v>
   <v>       0.22258994      0.44407673      0.87500000</v>
   <v>       0.55592327      0.44407673      0.87500000</v>
   <v>       0.88925661      0.44407673      0.87500000</v>
   <v>       0.22258994      0.77741006      0.87500000</v>
   <v>       0.55592327      0.77741006      0.87500000</v>
   <v>       0.88925661      0.77741006      0.87500000</v>
  </varray>
 </structure>
</modeling>
