nqpoint: 306    
npath: 6      
segment_nqpoint:
- 51
- 51
- 51
- 51
- 51
- 51
reciprocal_lattice:
- [  -0.26072621,   0.26072621,   0.26072621 ] # a*
- [   0.26072621,  -0.26072621,   0.26072621 ] # b*
- [   0.26072621,   0.26072621,  -0.26072621 ] # c*
natom: 1      
lattice:
- [     0.000000000000000,     1.917720525594587,     1.917720525594587 ] # a
- [     1.917720525594587,     0.000000000000000,     1.917720525594587 ] # b
- [     1.917720525594587,     1.917720525594587,     0.000000000000000 ] # c
points:
- symbol: Al # 1
  coordinates: [  0.000000000000000,  0.000000000000000,  0.000000000000000 ]
  mass: 26.981539
supercell_matrix:
- [   -4,    4,    4 ]
- [    4,   -4,    4 ]
- [    4,    4,   -4 ]

phonon:
- q-position: [    0.0000000,    0.0000000,    0.0000000 ]
  distance:    0.0000000
  label: '\Gamma'
  band:
  - # 1
    frequency:    0.0042563013
  - # 2
    frequency:    0.0042563013
  - # 3
    frequency:    0.0042563013

- q-position: [    0.0000000,    0.0100000,    0.0100000 ]
  distance:    0.0052145
  band:
  - # 1
    frequency:    0.2643458718
  - # 2
    frequency:    0.2643458718
  - # 3
    frequency:    0.4172653292

- q-position: [    0.0000000,    0.0200000,    0.0200000 ]
  distance:    0.0104290
  band:
  - # 1
    frequency:    0.5283197037
  - # 2
    frequency:    0.5283197037
  - # 3
    frequency:    0.8339819424

- q-position: [    0.0000000,    0.0300000,    0.0300000 ]
  distance:    0.0156436
  band:
  - # 1
    frequency:    0.7916644816
  - # 2
    frequency:    0.7916644816
  - # 3
    frequency:    1.2496748632

- q-position: [    0.0000000,    0.0400000,    0.0400000 ]
  distance:    0.0208581
  band:
  - # 1
    frequency:    1.0540534621
  - # 2
    frequency:    1.0540534621
  - # 3
    frequency:    1.6638266755

- q-position: [    0.0000000,    0.0500000,    0.0500000 ]
  distance:    0.0260726
  band:
  - # 1
    frequency:    1.3151692080
  - # 2
    frequency:    1.3151692080
  - # 3
    frequency:    2.0759284491

- q-position: [    0.0000000,    0.0600000,    0.0600000 ]
  distance:    0.0312871
  band:
  - # 1
    frequency:    1.5746986755
  - # 2
    frequency:    1.5746986755
  - # 3
    frequency:    2.4854774657

- q-position: [    0.0000000,    0.0700000,    0.0700000 ]
  distance:    0.0365017
  band:
  - # 1
    frequency:    1.8323331756
  - # 2
    frequency:    1.8323331756
  - # 3
    frequency:    2.8919780133

- q-position: [    0.0000000,    0.0800000,    0.0800000 ]
  distance:    0.0417162
  band:
  - # 1
    frequency:    2.0877689241
  - # 2
    frequency:    2.0877689241
  - # 3
    frequency:    3.2949425282

- q-position: [    0.0000000,    0.0900000,    0.0900000 ]
  distance:    0.0469307
  band:
  - # 1
    frequency:    2.3407076991
  - # 2
    frequency:    2.3407076991
  - # 3
    frequency:    3.6938927751

- q-position: [    0.0000000,    0.1000000,    0.1000000 ]
  distance:    0.0521452
  band:
  - # 1
    frequency:    2.5908575081
  - # 2
    frequency:    2.5908575081
  - # 3
    frequency:    4.0883609983

- q-position: [    0.0000000,    0.1100000,    0.1100000 ]
  distance:    0.0573598
  band:
  - # 1
    frequency:    2.8379332330
  - # 2
    frequency:    2.8379332330
  - # 3
    frequency:    4.4778910206

- q-position: [    0.0000000,    0.1200000,    0.1200000 ]
  distance:    0.0625743
  band:
  - # 1
    frequency:    3.0816572421
  - # 2
    frequency:    3.0816572421
  - # 3
    frequency:    4.8620392774

- q-position: [    0.0000000,    0.1300000,    0.1300000 ]
  distance:    0.0677888
  band:
  - # 1
    frequency:    3.3217599613
  - # 2
    frequency:    3.3217599613
  - # 3
    frequency:    5.2403757795

- q-position: [    0.0000000,    0.1400000,    0.1400000 ]
  distance:    0.0730033
  band:
  - # 1
    frequency:    3.5579804006
  - # 2
    frequency:    3.5579804006
  - # 3
    frequency:    5.6124849951

- q-position: [    0.0000000,    0.1500000,    0.1500000 ]
  distance:    0.0782179
  band:
  - # 1
    frequency:    3.7900666313
  - # 2
    frequency:    3.7900666313
  - # 3
    frequency:    5.9779666483

- q-position: [    0.0000000,    0.1600000,    0.1600000 ]
  distance:    0.0834324
  band:
  - # 1
    frequency:    4.0177762115
  - # 2
    frequency:    4.0177762115
  - # 3
    frequency:    6.3364364285

- q-position: [    0.0000000,    0.1700000,    0.1700000 ]
  distance:    0.0886469
  band:
  - # 1
    frequency:    4.2408765585
  - # 2
    frequency:    4.2408765585
  - # 3
    frequency:    6.6875266054

- q-position: [    0.0000000,    0.1800000,    0.1800000 ]
  distance:    0.0938614
  band:
  - # 1
    frequency:    4.4591452641
  - # 2
    frequency:    4.4591452641
  - # 3
    frequency:    7.0308865483

- q-position: [    0.0000000,    0.1900000,    0.1900000 ]
  distance:    0.0990760
  band:
  - # 1
    frequency:    4.6723703529
  - # 2
    frequency:    4.6723703529
  - # 3
    frequency:    7.3661831453

- q-position: [    0.0000000,    0.2000000,    0.2000000 ]
  distance:    0.1042905
  band:
  - # 1
    frequency:    4.8803504816
  - # 2
    frequency:    4.8803504816
  - # 3
    frequency:    7.6931011218

- q-position: [    0.0000000,    0.2100000,    0.2100000 ]
  distance:    0.1095050
  band:
  - # 1
    frequency:    5.0828950798
  - # 2
    frequency:    5.0828950798
  - # 3
    frequency:    8.0113432560

- q-position: [    0.0000000,    0.2200000,    0.2200000 ]
  distance:    0.1147195
  band:
  - # 1
    frequency:    5.2798244308
  - # 2
    frequency:    5.2798244308
  - # 3
    frequency:    8.3206304919

- q-position: [    0.0000000,    0.2300000,    0.2300000 ]
  distance:    0.1199341
  band:
  - # 1
    frequency:    5.4709696934
  - # 2
    frequency:    5.4709696934
  - # 3
    frequency:    8.6207019498

- q-position: [    0.0000000,    0.2400000,    0.2400000 ]
  distance:    0.1251486
  band:
  - # 1
    frequency:    5.6561728654
  - # 2
    frequency:    5.6561728654
  - # 3
    frequency:    8.9113148353

- q-position: [    0.0000000,    0.2500000,    0.2500000 ]
  distance:    0.1303631
  band:
  - # 1
    frequency:    5.8352866905
  - # 2
    frequency:    5.8352866905
  - # 3
    frequency:    9.1922442498

- q-position: [    0.0000000,    0.2600000,    0.2600000 ]
  distance:    0.1355776
  band:
  - # 1
    frequency:    6.0081745095
  - # 2
    frequency:    6.0081745095
  - # 3
    frequency:    9.4632829042

- q-position: [    0.0000000,    0.2700000,    0.2700000 ]
  distance:    0.1407922
  band:
  - # 1
    frequency:    6.1747100581
  - # 2
    frequency:    6.1747100581
  - # 3
    frequency:    9.7242407402

- q-position: [    0.0000000,    0.2800000,    0.2800000 ]
  distance:    0.1460067
  band:
  - # 1
    frequency:    6.3347772152
  - # 2
    frequency:    6.3347772152
  - # 3
    frequency:    9.9749444641

- q-position: [    0.0000000,    0.2900000,    0.2900000 ]
  distance:    0.1512212
  band:
  - # 1
    frequency:    6.4882697032
  - # 2
    frequency:    6.4882697032
  - # 3
    frequency:   10.2152369975

- q-position: [    0.0000000,    0.3000000,    0.3000000 ]
  distance:    0.1564357
  band:
  - # 1
    frequency:    6.6350907452
  - # 2
    frequency:    6.6350907452
  - # 3
    frequency:   10.4449768519

- q-position: [    0.0000000,    0.3100000,    0.3100000 ]
  distance:    0.1616502
  band:
  - # 1
    frequency:    6.7751526817
  - # 2
    frequency:    6.7751526817
  - # 3
    frequency:   10.6640374343

- q-position: [    0.0000000,    0.3200000,    0.3200000 ]
  distance:    0.1668648
  band:
  - # 1
    frequency:    6.9083765534
  - # 2
    frequency:    6.9083765534
  - # 3
    frequency:   10.8723062901

- q-position: [    0.0000000,    0.3300000,    0.3300000 ]
  distance:    0.1720793
  band:
  - # 1
    frequency:    7.0346916522
  - # 2
    frequency:    7.0346916522
  - # 3
    frequency:   11.0696842937

- q-position: [    0.0000000,    0.3400000,    0.3400000 ]
  distance:    0.1772938
  band:
  - # 1
    frequency:    7.1540350475
  - # 2
    frequency:    7.1540350475
  - # 3
    frequency:   11.2560847934

- q-position: [    0.0000000,    0.3500000,    0.3500000 ]
  distance:    0.1825083
  band:
  - # 1
    frequency:    7.2663510926
  - # 2
    frequency:    7.2663510926
  - # 3
    frequency:   11.4314327220

- q-position: [    0.0000000,    0.3600000,    0.3600000 ]
  distance:    0.1877229
  band:
  - # 1
    frequency:    7.3715909162
  - # 2
    frequency:    7.3715909162
  - # 3
    frequency:   11.5956636816

- q-position: [    0.0000000,    0.3700000,    0.3700000 ]
  distance:    0.1929374
  band:
  - # 1
    frequency:    7.4697119052
  - # 2
    frequency:    7.4697119052
  - # 3
    frequency:   11.7487230136

- q-position: [    0.0000000,    0.3800000,    0.3800000 ]
  distance:    0.1981519
  band:
  - # 1
    frequency:    7.5606771853
  - # 2
    frequency:    7.5606771853
  - # 3
    frequency:   11.8905648636

- q-position: [    0.0000000,    0.3900000,    0.3900000 ]
  distance:    0.2033664
  band:
  - # 1
    frequency:    7.6444551044
  - # 2
    frequency:    7.6444551044
  - # 3
    frequency:   12.0211512527

- q-position: [    0.0000000,    0.4000000,    0.4000000 ]
  distance:    0.2085810
  band:
  - # 1
    frequency:    7.7210187247
  - # 2
    frequency:    7.7210187247
  - # 3
    frequency:   12.1404511650

- q-position: [    0.0000000,    0.4100000,    0.4100000 ]
  distance:    0.2137955
  band:
  - # 1
    frequency:    7.7903453303
  - # 2
    frequency:    7.7903453303
  - # 3
    frequency:   12.2484396617

- q-position: [    0.0000000,    0.4200000,    0.4200000 ]
  distance:    0.2190100
  band:
  - # 1
    frequency:    7.8524159556
  - # 2
    frequency:    7.8524159556
  - # 3
    frequency:   12.3450970327

- q-position: [    0.0000000,    0.4300000,    0.4300000 ]
  distance:    0.2242245
  band:
  - # 1
    frequency:    7.9072149388
  - # 2
    frequency:    7.9072149388
  - # 3
    frequency:   12.4304079949

- q-position: [    0.0000000,    0.4400000,    0.4400000 ]
  distance:    0.2294391
  band:
  - # 1
    frequency:    7.9547295084
  - # 2
    frequency:    7.9547295084
  - # 3
    frequency:   12.5043609476

- q-position: [    0.0000000,    0.4500000,    0.4500000 ]
  distance:    0.2346536
  band:
  - # 1
    frequency:    7.9949494044
  - # 2
    frequency:    7.9949494044
  - # 3
    frequency:   12.5669472919

- q-position: [    0.0000000,    0.4600000,    0.4600000 ]
  distance:    0.2398681
  band:
  - # 1
    frequency:    8.0278665416
  - # 2
    frequency:    8.0278665416
  - # 3
    frequency:   12.6181608241

- q-position: [    0.0000000,    0.4700000,    0.4700000 ]
  distance:    0.2450826
  band:
  - # 1
    frequency:    8.0534747164
  - # 2
    frequency:    8.0534747164
  - # 3
    frequency:   12.6579972097

- q-position: [    0.0000000,    0.4800000,    0.4800000 ]
  distance:    0.2502972
  band:
  - # 1
    frequency:    8.0717693630
  - # 2
    frequency:    8.0717693630
  - # 3
    frequency:   12.6864535434

- q-position: [    0.0000000,    0.4900000,    0.4900000 ]
  distance:    0.2555117
  band:
  - # 1
    frequency:    8.0827473600
  - # 2
    frequency:    8.0827473600
  - # 3
    frequency:   12.7035280020

- q-position: [    0.0000000,    0.5000000,    0.5000000 ]
  distance:    0.2607262
  label: 'X'
  band:
  - # 1
    frequency:    8.0864068911
  - # 2
    frequency:    8.0864068911
  - # 3
    frequency:   12.7092195928

- q-position: [    0.0000000,    0.5000000,    0.5000000 ]
  distance:    0.2607262
  label: 'X'
  band:
  - # 1
    frequency:    8.0864068911
  - # 2
    frequency:    8.0864068911
  - # 3
    frequency:   12.7092195928

- q-position: [    0.0050000,    0.5050000,    0.5000000 ]
  distance:    0.2633335
  band:
  - # 1
    frequency:    8.0869213329
  - # 2
    frequency:    8.0876133564
  - # 3
    frequency:   12.7081210092

- q-position: [    0.0100000,    0.5100000,    0.5000000 ]
  distance:    0.2659407
  band:
  - # 1
    frequency:    8.0884624323
  - # 2
    frequency:    8.0912312520
  - # 3
    frequency:   12.7048262628

- q-position: [    0.0150000,    0.5150000,    0.5000000 ]
  distance:    0.2685480
  band:
  - # 1
    frequency:    8.0910235231
  - # 2
    frequency:    8.0972560810
  - # 3
    frequency:   12.6993383657

- q-position: [    0.0200000,    0.5200000,    0.5000000 ]
  distance:    0.2711553
  band:
  - # 1
    frequency:    8.0945935358
  - # 2
    frequency:    8.1056803620
  - # 3
    frequency:   12.6916623348

- q-position: [    0.0250000,    0.5250000,    0.5000000 ]
  distance:    0.2737625
  band:
  - # 1
    frequency:    8.0991570580
  - # 2
    frequency:    8.1164936496
  - # 3
    frequency:   12.6818051879

- q-position: [    0.0300000,    0.5300000,    0.5000000 ]
  distance:    0.2763698
  band:
  - # 1
    frequency:    8.1046944188
  - # 2
    frequency:    8.1296825623
  - # 3
    frequency:   12.6697759374

- q-position: [    0.0350000,    0.5350000,    0.5000000 ]
  distance:    0.2789770
  band:
  - # 1
    frequency:    8.1111817951
  - # 2
    frequency:    8.1452308180
  - # 3
    frequency:   12.6555855821

- q-position: [    0.0400000,    0.5400000,    0.5000000 ]
  distance:    0.2815843
  band:
  - # 1
    frequency:    8.1185913407
  - # 2
    frequency:    8.1631192771
  - # 3
    frequency:   12.6392470979

- q-position: [    0.0450000,    0.5450000,    0.5000000 ]
  distance:    0.2841916
  band:
  - # 1
    frequency:    8.1268913342
  - # 2
    frequency:    8.1833259921
  - # 3
    frequency:   12.6207754261

- q-position: [    0.0500000,    0.5500000,    0.5000000 ]
  distance:    0.2867988
  band:
  - # 1
    frequency:    8.1360463479
  - # 2
    frequency:    8.2058262635
  - # 3
    frequency:   12.6001874607

- q-position: [    0.0550000,    0.5550000,    0.5000000 ]
  distance:    0.2894061
  band:
  - # 1
    frequency:    8.1460174330
  - # 2
    frequency:    8.2305927021
  - # 3
    frequency:   12.5775020333

- q-position: [    0.0600000,    0.5600000,    0.5000000 ]
  distance:    0.2920134
  band:
  - # 1
    frequency:    8.1567623214
  - # 2
    frequency:    8.2575952966
  - # 3
    frequency:   12.5527398971

- q-position: [    0.0650000,    0.5650000,    0.5000000 ]
  distance:    0.2946206
  band:
  - # 1
    frequency:    8.1682356418
  - # 2
    frequency:    8.2868014852
  - # 3
    frequency:   12.5259237084

- q-position: [    0.0700000,    0.5700000,    0.5000000 ]
  distance:    0.2972279
  band:
  - # 1
    frequency:    8.1803891485
  - # 2
    frequency:    8.3181762331
  - # 3
    frequency:   12.4970780070

- q-position: [    0.0750000,    0.5750000,    0.5000000 ]
  distance:    0.2998351
  band:
  - # 1
    frequency:    8.1931719607
  - # 2
    frequency:    8.3516821121
  - # 3
    frequency:   12.4662291953

- q-position: [    0.0800000,    0.5800000,    0.5000000 ]
  distance:    0.3024424
  band:
  - # 1
    frequency:    8.2065308115
  - # 2
    frequency:    8.3872793846
  - # 3
    frequency:   12.4334055149

- q-position: [    0.0850000,    0.5850000,    0.5000000 ]
  distance:    0.3050497
  band:
  - # 1
    frequency:    8.2204103033
  - # 2
    frequency:    8.4249260894
  - # 3
    frequency:   12.3986370228

- q-position: [    0.0900000,    0.5900000,    0.5000000 ]
  distance:    0.3076569
  band:
  - # 1
    frequency:    8.2347531692
  - # 2
    frequency:    8.4645781298
  - # 3
    frequency:   12.3619555652

- q-position: [    0.0950000,    0.5950000,    0.5000000 ]
  distance:    0.3102642
  band:
  - # 1
    frequency:    8.2495005382
  - # 2
    frequency:    8.5061893634
  - # 3
    frequency:   12.3233947500

- q-position: [    0.1000000,    0.6000000,    0.5000000 ]
  distance:    0.3128714
  band:
  - # 1
    frequency:    8.2645922022
  - # 2
    frequency:    8.5497116927
  - # 3
    frequency:   12.2829899188

- q-position: [    0.1050000,    0.6050000,    0.5000000 ]
  distance:    0.3154787
  band:
  - # 1
    frequency:    8.2799668838
  - # 2
    frequency:    8.5950951562
  - # 3
    frequency:   12.2407781160

- q-position: [    0.1100000,    0.6100000,    0.5000000 ]
  distance:    0.3180860
  band:
  - # 1
    frequency:    8.2955625031
  - # 2
    frequency:    8.6422880200
  - # 3
    frequency:   12.1967980577

- q-position: [    0.1150000,    0.6150000,    0.5000000 ]
  distance:    0.3206932
  band:
  - # 1
    frequency:    8.3113164422
  - # 2
    frequency:    8.6912368687
  - # 3
    frequency:   12.1510900990

- q-position: [    0.1200000,    0.6200000,    0.5000000 ]
  distance:    0.3233005
  band:
  - # 1
    frequency:    8.3271658064
  - # 2
    frequency:    8.7418866957
  - # 3
    frequency:   12.1036961997

- q-position: [    0.1250000,    0.6250000,    0.5000000 ]
  distance:    0.3259078
  band:
  - # 1
    frequency:    8.3430476803
  - # 2
    frequency:    8.7941809932
  - # 3
    frequency:   12.0546598896

- q-position: [    0.1300000,    0.6300000,    0.5000000 ]
  distance:    0.3285150
  band:
  - # 1
    frequency:    8.3588993787
  - # 2
    frequency:    8.8480618403
  - # 3
    frequency:   12.0040262313

- q-position: [    0.1350000,    0.6350000,    0.5000000 ]
  distance:    0.3311223
  band:
  - # 1
    frequency:    8.3746586908
  - # 2
    frequency:    8.9034699900
  - # 3
    frequency:   11.9518417838

- q-position: [    0.1400000,    0.6400000,    0.5000000 ]
  distance:    0.3337295
  band:
  - # 1
    frequency:    8.3902641166
  - # 2
    frequency:    8.9603449547
  - # 3
    frequency:   11.8981545628

- q-position: [    0.1450000,    0.6450000,    0.5000000 ]
  distance:    0.3363368
  band:
  - # 1
    frequency:    8.4056550960
  - # 2
    frequency:    9.0186250897
  - # 3
    frequency:   11.8430140019

- q-position: [    0.1500000,    0.6500000,    0.5000000 ]
  distance:    0.3389441
  band:
  - # 1
    frequency:    8.4207722283
  - # 2
    frequency:    9.0782476755
  - # 3
    frequency:   11.7864709118

- q-position: [    0.1550000,    0.6550000,    0.5000000 ]
  distance:    0.3415513
  band:
  - # 1
    frequency:    8.4355574837
  - # 2
    frequency:    9.1391489974
  - # 3
    frequency:   11.7285774389

- q-position: [    0.1600000,    0.6600000,    0.5000000 ]
  distance:    0.3441586
  band:
  - # 1
    frequency:    8.4499544042
  - # 2
    frequency:    9.2012644237
  - # 3
    frequency:   11.6693870226

- q-position: [    0.1650000,    0.6650000,    0.5000000 ]
  distance:    0.3467659
  band:
  - # 1
    frequency:    8.4639082956
  - # 2
    frequency:    9.2645284817
  - # 3
    frequency:   11.6089543527

- q-position: [    0.1700000,    0.6700000,    0.5000000 ]
  distance:    0.3493731
  band:
  - # 1
    frequency:    8.4773664089
  - # 2
    frequency:    9.3288749323
  - # 3
    frequency:   11.5473353251

- q-position: [    0.1750000,    0.6750000,    0.5000000 ]
  distance:    0.3519804
  band:
  - # 1
    frequency:    8.4902781116
  - # 2
    frequency:    9.3942368418
  - # 3
    frequency:   11.4845869972

- q-position: [    0.1800000,    0.6800000,    0.5000000 ]
  distance:    0.3545876
  band:
  - # 1
    frequency:    8.5025950491
  - # 2
    frequency:    9.4605466527
  - # 3
    frequency:   11.4207675426

- q-position: [    0.1850000,    0.6850000,    0.5000000 ]
  distance:    0.3571949
  band:
  - # 1
    frequency:    8.5142712953
  - # 2
    frequency:    9.5277362522
  - # 3
    frequency:   11.3559362051

- q-position: [    0.1900000,    0.6900000,    0.5000000 ]
  distance:    0.3598022
  band:
  - # 1
    frequency:    8.5252634928
  - # 2
    frequency:    9.5957370394
  - # 3
    frequency:   11.2901532520

- q-position: [    0.1950000,    0.6950000,    0.5000000 ]
  distance:    0.3624094
  band:
  - # 1
    frequency:    8.5355309836
  - # 2
    frequency:    9.6644799905
  - # 3
    frequency:   11.2234799271

- q-position: [    0.2000000,    0.7000000,    0.5000000 ]
  distance:    0.3650167
  band:
  - # 1
    frequency:    8.5450359282
  - # 2
    frequency:    9.7338957228
  - # 3
    frequency:   11.1559784033

- q-position: [    0.2050000,    0.7050000,    0.5000000 ]
  distance:    0.3676240
  band:
  - # 1
    frequency:    8.5537434163
  - # 2
    frequency:    9.8039145572
  - # 3
    frequency:   11.0877117339

- q-position: [    0.2100000,    0.7100000,    0.5000000 ]
  distance:    0.3702312
  band:
  - # 1
    frequency:    8.5616215657
  - # 2
    frequency:    9.8744665794
  - # 3
    frequency:   11.0187438044

- q-position: [    0.2150000,    0.7150000,    0.5000000 ]
  distance:    0.3728385
  band:
  - # 1
    frequency:    8.5686416121
  - # 2
    frequency:    9.9454816995
  - # 3
    frequency:   10.9491392834

- q-position: [    0.2200000,    0.7200000,    0.5000000 ]
  distance:    0.3754457
  band:
  - # 1
    frequency:    8.5747779895
  - # 2
    frequency:   10.0168897115
  - # 3
    frequency:   10.8789635732

- q-position: [    0.2250000,    0.7250000,    0.5000000 ]
  distance:    0.3780530
  band:
  - # 1
    frequency:    8.5800083998
  - # 2
    frequency:   10.0886203506
  - # 3
    frequency:   10.8082827600

- q-position: [    0.2300000,    0.7300000,    0.5000000 ]
  distance:    0.3806603
  band:
  - # 1
    frequency:    8.5843138736
  - # 2
    frequency:   10.1606033504
  - # 3
    frequency:   10.7371635638

- q-position: [    0.2350000,    0.7350000,    0.5000000 ]
  distance:    0.3832675
  band:
  - # 1
    frequency:    8.5876788213
  - # 2
    frequency:   10.2327684986
  - # 3
    frequency:   10.6656732876

- q-position: [    0.2400000,    0.7400000,    0.5000000 ]
  distance:    0.3858748
  band:
  - # 1
    frequency:    8.5900910747
  - # 2
    frequency:   10.3050456930
  - # 3
    frequency:   10.5938797667

- q-position: [    0.2450000,    0.7450000,    0.5000000 ]
  distance:    0.3884820
  band:
  - # 1
    frequency:    8.5915419190
  - # 2
    frequency:   10.3773649954
  - # 3
    frequency:   10.5218513177

- q-position: [    0.2500000,    0.7500000,    0.5000000 ]
  distance:    0.3910893
  label: 'W'
  band:
  - # 1
    frequency:    8.5920261163
  - # 2
    frequency:   10.4496566863
  - # 3
    frequency:   10.4496566863

- q-position: [    0.2500000,    0.7500000,    0.5000000 ]
  distance:    0.3910893
  label: 'W'
  band:
  - # 1
    frequency:    8.5920261163
  - # 2
    frequency:   10.4496566863
  - # 3
    frequency:   10.4496566863

- q-position: [    0.2450000,    0.7450000,    0.5000000 ]
  distance:    0.3936966
  band:
  - # 1
    frequency:    8.5915419190
  - # 2
    frequency:   10.3773649954
  - # 3
    frequency:   10.5218513177

- q-position: [    0.2400000,    0.7400000,    0.5000000 ]
  distance:    0.3963038
  band:
  - # 1
    frequency:    8.5900910747
  - # 2
    frequency:   10.3050456930
  - # 3
    frequency:   10.5938797667

- q-position: [    0.2350000,    0.7350000,    0.5000000 ]
  distance:    0.3989111
  band:
  - # 1
    frequency:    8.5876788213
  - # 2
    frequency:   10.2327684986
  - # 3
    frequency:   10.6656732876

- q-position: [    0.2300000,    0.7300000,    0.5000000 ]
  distance:    0.4015184
  band:
  - # 1
    frequency:    8.5843138736
  - # 2
    frequency:   10.1606033504
  - # 3
    frequency:   10.7371635638

- q-position: [    0.2250000,    0.7250000,    0.5000000 ]
  distance:    0.4041256
  band:
  - # 1
    frequency:    8.5800083998
  - # 2
    frequency:   10.0886203506
  - # 3
    frequency:   10.8082827600

- q-position: [    0.2200000,    0.7200000,    0.5000000 ]
  distance:    0.4067329
  band:
  - # 1
    frequency:    8.5747779895
  - # 2
    frequency:   10.0168897115
  - # 3
    frequency:   10.8789635732

- q-position: [    0.2150000,    0.7150000,    0.5000000 ]
  distance:    0.4093401
  band:
  - # 1
    frequency:    8.5686416121
  - # 2
    frequency:    9.9454816995
  - # 3
    frequency:   10.9491392834

- q-position: [    0.2100000,    0.7100000,    0.5000000 ]
  distance:    0.4119474
  band:
  - # 1
    frequency:    8.5616215657
  - # 2
    frequency:    9.8744665794
  - # 3
    frequency:   11.0187438044

- q-position: [    0.2050000,    0.7050000,    0.5000000 ]
  distance:    0.4145547
  band:
  - # 1
    frequency:    8.5537434163
  - # 2
    frequency:    9.8039145572
  - # 3
    frequency:   11.0877117339

- q-position: [    0.2000000,    0.7000000,    0.5000000 ]
  distance:    0.4171619
  band:
  - # 1
    frequency:    8.5450359282
  - # 2
    frequency:    9.7338957228
  - # 3
    frequency:   11.1559784033

- q-position: [    0.1950000,    0.6950000,    0.5000000 ]
  distance:    0.4197692
  band:
  - # 1
    frequency:    8.5355309836
  - # 2
    frequency:    9.6644799905
  - # 3
    frequency:   11.2234799271

- q-position: [    0.1900000,    0.6900000,    0.5000000 ]
  distance:    0.4223765
  band:
  - # 1
    frequency:    8.5252634928
  - # 2
    frequency:    9.5957370394
  - # 3
    frequency:   11.2901532520

- q-position: [    0.1850000,    0.6850000,    0.5000000 ]
  distance:    0.4249837
  band:
  - # 1
    frequency:    8.5142712953
  - # 2
    frequency:    9.5277362522
  - # 3
    frequency:   11.3559362051

- q-position: [    0.1800000,    0.6800000,    0.5000000 ]
  distance:    0.4275910
  band:
  - # 1
    frequency:    8.5025950491
  - # 2
    frequency:    9.4605466527
  - # 3
    frequency:   11.4207675426

- q-position: [    0.1750000,    0.6750000,    0.5000000 ]
  distance:    0.4301982
  band:
  - # 1
    frequency:    8.4902781116
  - # 2
    frequency:    9.3942368418
  - # 3
    frequency:   11.4845869972

- q-position: [    0.1700000,    0.6700000,    0.5000000 ]
  distance:    0.4328055
  band:
  - # 1
    frequency:    8.4773664089
  - # 2
    frequency:    9.3288749323
  - # 3
    frequency:   11.5473353251

- q-position: [    0.1650000,    0.6650000,    0.5000000 ]
  distance:    0.4354128
  band:
  - # 1
    frequency:    8.4639082956
  - # 2
    frequency:    9.2645284817
  - # 3
    frequency:   11.6089543527

- q-position: [    0.1600000,    0.6600000,    0.5000000 ]
  distance:    0.4380200
  band:
  - # 1
    frequency:    8.4499544042
  - # 2
    frequency:    9.2012644237
  - # 3
    frequency:   11.6693870226

- q-position: [    0.1550000,    0.6550000,    0.5000000 ]
  distance:    0.4406273
  band:
  - # 1
    frequency:    8.4355574837
  - # 2
    frequency:    9.1391489974
  - # 3
    frequency:   11.7285774389

- q-position: [    0.1500000,    0.6500000,    0.5000000 ]
  distance:    0.4432346
  band:
  - # 1
    frequency:    8.4207722283
  - # 2
    frequency:    9.0782476755
  - # 3
    frequency:   11.7864709118

- q-position: [    0.1450000,    0.6450000,    0.5000000 ]
  distance:    0.4458418
  band:
  - # 1
    frequency:    8.4056550960
  - # 2
    frequency:    9.0186250897
  - # 3
    frequency:   11.8430140019

- q-position: [    0.1400000,    0.6400000,    0.5000000 ]
  distance:    0.4484491
  band:
  - # 1
    frequency:    8.3902641166
  - # 2
    frequency:    8.9603449547
  - # 3
    frequency:   11.8981545628

- q-position: [    0.1350000,    0.6350000,    0.5000000 ]
  distance:    0.4510563
  band:
  - # 1
    frequency:    8.3746586908
  - # 2
    frequency:    8.9034699900
  - # 3
    frequency:   11.9518417838

- q-position: [    0.1300000,    0.6300000,    0.5000000 ]
  distance:    0.4536636
  band:
  - # 1
    frequency:    8.3588993787
  - # 2
    frequency:    8.8480618403
  - # 3
    frequency:   12.0040262313

- q-position: [    0.1250000,    0.6250000,    0.5000000 ]
  distance:    0.4562709
  band:
  - # 1
    frequency:    8.3430476803
  - # 2
    frequency:    8.7941809932
  - # 3
    frequency:   12.0546598896

- q-position: [    0.1200000,    0.6200000,    0.5000000 ]
  distance:    0.4588781
  band:
  - # 1
    frequency:    8.3271658064
  - # 2
    frequency:    8.7418866957
  - # 3
    frequency:   12.1036961997

- q-position: [    0.1150000,    0.6150000,    0.5000000 ]
  distance:    0.4614854
  band:
  - # 1
    frequency:    8.3113164422
  - # 2
    frequency:    8.6912368687
  - # 3
    frequency:   12.1510900990

- q-position: [    0.1100000,    0.6100000,    0.5000000 ]
  distance:    0.4640926
  band:
  - # 1
    frequency:    8.2955625031
  - # 2
    frequency:    8.6422880200
  - # 3
    frequency:   12.1967980577

- q-position: [    0.1050000,    0.6050000,    0.5000000 ]
  distance:    0.4666999
  band:
  - # 1
    frequency:    8.2799668838
  - # 2
    frequency:    8.5950951562
  - # 3
    frequency:   12.2407781160

- q-position: [    0.1000000,    0.6000000,    0.5000000 ]
  distance:    0.4693072
  band:
  - # 1
    frequency:    8.2645922022
  - # 2
    frequency:    8.5497116927
  - # 3
    frequency:   12.2829899188

- q-position: [    0.0950000,    0.5950000,    0.5000000 ]
  distance:    0.4719144
  band:
  - # 1
    frequency:    8.2495005382
  - # 2
    frequency:    8.5061893634
  - # 3
    frequency:   12.3233947500

- q-position: [    0.0900000,    0.5900000,    0.5000000 ]
  distance:    0.4745217
  band:
  - # 1
    frequency:    8.2347531692
  - # 2
    frequency:    8.4645781298
  - # 3
    frequency:   12.3619555652

- q-position: [    0.0850000,    0.5850000,    0.5000000 ]
  distance:    0.4771290
  band:
  - # 1
    frequency:    8.2204103033
  - # 2
    frequency:    8.4249260894
  - # 3
    frequency:   12.3986370228

- q-position: [    0.0800000,    0.5800000,    0.5000000 ]
  distance:    0.4797362
  band:
  - # 1
    frequency:    8.2065308115
  - # 2
    frequency:    8.3872793846
  - # 3
    frequency:   12.4334055149

- q-position: [    0.0750000,    0.5750000,    0.5000000 ]
  distance:    0.4823435
  band:
  - # 1
    frequency:    8.1931719607
  - # 2
    frequency:    8.3516821121
  - # 3
    frequency:   12.4662291953

- q-position: [    0.0700000,    0.5700000,    0.5000000 ]
  distance:    0.4849507
  band:
  - # 1
    frequency:    8.1803891485
  - # 2
    frequency:    8.3181762331
  - # 3
    frequency:   12.4970780070
