32   
1    

1    
  0.0100000000000000   0.0000000000000000   0.0000000000000000
  -0.0830983300    0.0000000000   -0.0000000000
   0.0026671100   -0.0000000000    0.0000000000
  -0.0002714000    0.0000000000   -0.0000000000
   0.0007477000   -0.0000000000   -0.0000000000
  -0.0002714000    0.0000000000    0.0000000000
   0.0007477000    0.0000000000    0.0000000000
   0.0005840700    0.0000000000   -0.0000000000
  -0.0006329400   -0.0000000000   -0.0000000000
  -0.0014562600    0.0000393000   -0.0000393000
  -0.0002829000   -0.0000030600    0.0000030600
  -0.0014562600   -0.0000393000   -0.0000393000
  -0.0002829000    0.0000030600    0.0000030600
  -0.0014562600    0.0000393000    0.0000393000
  -0.0002829000   -0.0000030600   -0.0000030600
  -0.0014562600   -0.0000393000    0.0000393000
  -0.0002829000    0.0000030600   -0.0000030600
   0.0106521900   -0.0000000000   -0.0114808700
   0.0108822800    0.0000000000    0.0118207500
   0.0000407400    0.0000000000   -0.0000278100
   0.0000458300   -0.0000000000    0.0000312800
   0.0106521900   -0.0000000000    0.0114808700
   0.0108822800    0.0000000000   -0.0118207500
   0.0000407400    0.0000000000    0.0000278100
   0.0000458300   -0.0000000000   -0.0000312800
   0.0106521900    0.0114808700    0.0000000000
   0.0108822800   -0.0118207500   -0.0000000000
   0.0106521900   -0.0114808700   -0.0000000000
   0.0108822800    0.0118207500   -0.0000000000
   0.0000407400    0.0000278100   -0.0000000000
   0.0000458300   -0.0000312800    0.0000000000
   0.0000407400   -0.0000278100    0.0000000000
   0.0000458300    0.0000312800    0.0000000000
