mesh: [    48,    48,    48 ]
nqpoint: 2600   
reciprocal_lattice:
- [   0.26072621,   0.00000000,   0.00000000 ] # a*
- [   0.00000000,   0.26072621,   0.00000000 ] # b*
- [   0.00000000,   0.00000000,   0.26072621 ] # c*
natom:   4      
lattice:
- [     3.835441051189174,     0.000000000000000,     0.000000000000000 ] # a
- [     0.000000000000000,     3.835441051189174,     0.000000000000000 ] # b
- [     0.000000000000000,     0.000000000000000,     3.835441051189174 ] # c
points:
- symbol: Al # 1
  coordinates: [  0.500000000000000,  0.500000000000000,  0.000000000000000 ]
  mass: 26.981539
- symbol: Al # 2
  coordinates: [  0.500000000000000,  0.000000000000000,  0.500000000000000 ]
  mass: 26.981539
- symbol: Al # 3
  coordinates: [  0.000000000000000,  0.500000000000000,  0.500000000000000 ]
  mass: 26.981539
- symbol: Al # 4
  coordinates: [  0.000000000000000,  0.000000000000000,  0.000000000000000 ]
  mass: 26.981539
phonon:
- q-position: [    0.0104167,    0.0104167,    0.0104167 ]
  weight: 8    
  band:
  - # 1
    frequency:     0.1968910819
  - # 2
    frequency:     0.1968910819
  - # 3
    frequency:     0.4179503747
  - # 4
    frequency:     8.1059964158
  - # 5
    frequency:     8.1059964158
  - # 6
    frequency:     8.1059964158
  - # 7
    frequency:     8.1115808338
  - # 8
    frequency:     8.1115808338
  - # 9
    frequency:     8.1115808338
  - # 10
    frequency:    12.5136176475
  - # 11
    frequency:    12.5136176475
  - # 12
    frequency:    12.5136176475

- q-position: [    0.0312500,    0.0104167,    0.0104167 ]
  weight: 24   
  band:
  - # 1
    frequency:     0.3954728443
  - # 2
    frequency:     0.4343410209
  - # 3
    frequency:     0.7610000275
  - # 4
    frequency:     8.0978924231
  - # 5
    frequency:     8.1034598914
  - # 6
    frequency:     8.1078929528
  - # 7
    frequency:     8.1078929528
  - # 8
    frequency:     8.1263335794
  - # 9
    frequency:     8.1263335794
  - # 10
    frequency:    12.5017195663
  - # 11
    frequency:    12.5060085429
  - # 12
    frequency:    12.5060085429

- q-position: [    0.0520833,    0.0104167,    0.0104167 ]
  weight: 24   
  band:
  - # 1
    frequency:     0.6659596748
  - # 2
    frequency:     0.6983288825
  - # 3
    frequency:     1.1546988327
  - # 4
    frequency:     8.0816874792
  - # 5
    frequency:     8.0872210851
  - # 6
    frequency:     8.1155425241
  - # 7
    frequency:     8.1155425241
  - # 8
    frequency:     8.1517893791
  - # 9
    frequency:     8.1517893791
  - # 10
    frequency:    12.4779213436
  - # 11
    frequency:    12.4908070738
  - # 12
    frequency:    12.4908070738

- q-position: [    0.0729167,    0.0104167,    0.0104167 ]
  weight: 24   
  band:
  - # 1
    frequency:     0.9411353562
  - # 2
    frequency:     0.9665830671
  - # 3
    frequency:     1.5639724140
  - # 4
    frequency:     8.0573877214
  - # 5
    frequency:     8.0628706252
  - # 6
    frequency:     8.1280122874
  - # 7
    frequency:     8.1280122874
  - # 8
    frequency:     8.1884993834
  - # 9
    frequency:     8.1884993834
  - # 10
    frequency:    12.4422190195
  - # 11
    frequency:    12.4680467769
  - # 12
    frequency:    12.4680467769

- q-position: [    0.0937500,    0.0104167,    0.0104167 ]
  weight: 24   
  band:
  - # 1
    frequency:     1.2150128270
  - # 2
    frequency:     1.2354145920
  - # 3
    frequency:     1.9787881029
  - # 4
    frequency:     8.0250024918
  - # 5
    frequency:     8.0304179610
  - # 6
    frequency:     8.1447235843
  - # 7
    frequency:     8.1447235843
  - # 8
    frequency:     8.2364812126
  - # 9
    frequency:     8.2364812126
  - # 10
    frequency:    12.3946070548
  - # 11
    frequency:    12.4377780968
  - # 12
    frequency:    12.4377780968

- q-position: [    0.1145833,    0.0104167,    0.0104167 ]
  weight: 24   
  band:
  - # 1
    frequency:     1.4867877007
  - # 2
    frequency:     1.5035196180
  - # 3
    frequency:     2.3948971718
  - # 4
    frequency:     7.9845444974
  - # 5
    frequency:     7.9898759381
  - # 6
    frequency:     8.1652204445
  - # 7
    frequency:     8.1652204445
  - # 8
    frequency:     8.2954635918
  - # 9
    frequency:     8.2954635918
  - # 10
    frequency:    12.3350788044
  - # 11
    frequency:    12.4000685543
  - # 12
    frequency:    12.4000685543

- q-position: [    0.1354167,    0.0104167,    0.0104167 ]
  weight: 24   
  band:
  - # 1
    frequency:     1.7562147412
  - # 2
    frequency:     1.7701833014
  - # 3
    frequency:     2.8100494315
  - # 4
    frequency:     7.9360300220
  - # 5
    frequency:     7.9412610068
  - # 6
    frequency:     8.1890603494
  - # 7
    frequency:     8.1890603494
  - # 8
    frequency:     8.3650120756
  - # 9
    frequency:     8.3650120756
  - # 10
    frequency:    12.2636271402
  - # 11
    frequency:    12.3550029703
  - # 12
    frequency:    12.3550029703

- q-position: [    0.1562500,    0.0104167,    0.0104167 ]
  weight: 24   
  band:
  - # 1
    frequency:     2.0230843040
  - # 2
    frequency:     2.0348952739
  - # 3
    frequency:     3.2228193406
  - # 4
    frequency:     7.8794791847
  - # 5
    frequency:     7.8845934757
  - # 6
    frequency:     8.2157767709
  - # 7
    frequency:     8.2157767709
  - # 8
    frequency:     8.4445855903
  - # 9
    frequency:     8.4445855903
  - # 10
    frequency:    12.1802452140
  - # 11
    frequency:    12.3026837453
  - # 12
    frequency:    12.3026837453

- q-position: [    0.1770833,    0.0104167,    0.0104167 ]
  weight: 24   
  band:
  - # 1
    frequency:     2.2871621771
  - # 2
    frequency:     2.2972339142
  - # 3
    frequency:     3.6321702443
  - # 4
    frequency:     7.8149162433
  - # 5
    frequency:     7.8198978101
  - # 6
    frequency:     8.2448704907
  - # 7
    frequency:     8.2448704907
  - # 8
    frequency:     8.5335659743
  - # 9
    frequency:     8.5335659743
  - # 10
    frequency:    12.0849273494
  - # 11
    frequency:    12.2432311944
  - # 12
    frequency:    12.2432311944

- q-position: [    0.1979167,    0.0104167,    0.0104167 ]
  weight: 24   
  band:
  - # 1
    frequency:     2.5481922963
  - # 2
    frequency:     2.5568235552
  - # 3
    frequency:     4.0372710042
  - # 4
    frequency:     7.7423699375
  - # 5
    frequency:     7.7472029691
  - # 6
    frequency:     8.2758121133
  - # 7
    frequency:     8.2758121133
  - # 8
    frequency:     8.6312773020
  - # 9
    frequency:     8.6312773020
  - # 10
    frequency:    11.9776700537
  - # 11
    frequency:    12.1767839386
  - # 12
    frequency:    12.1767839386

- q-position: [    0.2187500,    0.0104167,    0.0104167 ]
  weight: 24   
  band:
  - # 1
    frequency:     2.8059057208
  - # 2
    frequency:     2.8133163775
  - # 3
    frequency:     4.4374110155
  - # 4
    frequency:     7.6618738687
  - # 5
    frequency:     7.6665427781
  - # 6
    frequency:     8.3080491053
  - # 7
    frequency:     8.3080491053
  - # 8
    frequency:     8.7370009080
  - # 9
    frequency:     8.7370009080
  - # 10
    frequency:    11.8584731339
  - # 11
    frequency:    12.1034993492
  - # 12
    frequency:    12.1034993492

- q-position: [    0.2395833,    0.0104167,    0.0104167 ]
  weight: 24   
  band:
  - # 1
    frequency:     3.0600278231
  - # 2
    frequency:     3.0663840304
  - # 3
    frequency:     4.8319577578
  - # 4
    frequency:     7.5734669104
  - # 5
    frequency:     7.5779563315
  - # 6
    frequency:     8.3410146790
  - # 7
    frequency:     8.3410146790
  - # 8
    frequency:     8.8499881433
  - # 9
    frequency:     8.8499881433
  - # 10
    frequency:    11.7273409052
  - # 11
    frequency:    12.0235540487
  - # 12
    frequency:    12.0235540487

- q-position: [    0.2604167,    0.0104167,    0.0104167 ]
  weight: 24   
  band:
  - # 1
    frequency:     3.3102832940
  - # 2
    frequency:     3.3157135344
  - # 3
    frequency:     5.2203343344
  - # 4
    frequency:     7.4771936447
  - # 5
    frequency:     7.4814884212
  - # 6
    frequency:     8.3741373098
  - # 7
    frequency:     8.3741373098
  - # 8
    frequency:     8.9694715414
  - # 9
    frequency:     8.9694715414
  - # 10
    frequency:    11.5842834751
  - # 11
    frequency:    11.9371444631
  - # 12
    frequency:    11.9371444631

- q-position: [    0.2812500,    0.0104167,    0.0104167 ]
  weight: 24   
  band:
  - # 1
    frequency:     3.5563995673
  - # 2
    frequency:     3.5610052263
  - # 3
    frequency:     5.6020070573
  - # 4
    frequency:     7.3731048186
  - # 5
    frequency:     7.3771899828
  - # 6
    frequency:     8.4068502668
  - # 7
    frequency:     8.4068502668
  - # 8
    frequency:     9.0946746058
  - # 9
    frequency:     9.0946746058
  - # 10
    frequency:    11.4293180870
  - # 11
    frequency:    11.8444874279
  - # 12
    frequency:    11.8444874279

- q-position: [    0.3020833,    0.0104167,    0.0104167 ]
  weight: 24   
  band:
  - # 1
    frequency:     3.7981092031
  - # 2
    frequency:     3.8019717385
  - # 3
    frequency:     5.9764783575
  - # 4
    frequency:     7.2612578157
  - # 5
    frequency:     7.2651185576
  - # 6
    frequency:     8.4386008049
  - # 7
    frequency:     8.4386008049
  - # 8
    frequency:     9.2248202909
  - # 9
    frequency:     9.2248202909
  - # 10
    frequency:    11.2624705090
  - # 11
    frequency:    11.7458208437
  - # 12
    frequency:    11.7458208437

- q-position: [    0.3229167,    0.0104167,    0.0104167 ]
  weight: 24   
  band:
  - # 1
    frequency:     4.0351515869
  - # 2
    frequency:     4.0383375194
  - # 3
    frequency:     6.3432826362
  - # 4
    frequency:     7.1417171353
  - # 5
    frequency:     7.1453387602
  - # 6
    frequency:     8.4688588002
  - # 7
    frequency:     8.4688588002
  - # 8
    frequency:     9.3591382217
  - # 9
    frequency:     9.3591382217
  - # 10
    frequency:    11.0837764484
  - # 11
    frequency:    11.6414043811
  - # 12
    frequency:    11.6414043811

- q-position: [    0.3437500,    0.0104167,    0.0104167 ]
  weight: 24   
  band:
  - # 1
    frequency:     4.2672741703
  - # 2
    frequency:     4.2698386407
  - # 3
    frequency:     6.7019837862
  - # 4
    frequency:     7.0145548748
  - # 5
    frequency:     7.0179227483
  - # 6
    frequency:     8.4971246946
  - # 7
    frequency:     8.4971246946
  - # 8
    frequency:     9.4968707115
  - # 9
    frequency:     9.4968707115
  - # 10
    frequency:    10.8932829775
  - # 11
    frequency:    11.5315202319
  - # 12
    frequency:    11.5315202319

- q-position: [    0.3645833,    0.0104167,    0.0104167 ]
  weight: 24   
  band:
  - # 1
    frequency:     4.4942333927
  - # 2
    frequency:     4.4962227519
  - # 3
    frequency:     6.8798512079
  - # 4
    frequency:     6.8829506877
  - # 5
    frequency:     7.0521736726
  - # 6
    frequency:     8.5229366691
  - # 7
    frequency:     8.5229366691
  - # 8
    frequency:     9.6372776529
  - # 9
    frequency:     9.6372776529
  - # 10
    frequency:    10.6910499529
  - # 11
    frequency:    11.4164739070
  - # 12
    frequency:    11.4164739070

- q-position: [    0.3854167,    0.0104167,    0.0104167 ]
  weight: 24   
  band:
  - # 1
    frequency:     4.7157953709
  - # 2
    frequency:     4.7172491028
  - # 3
    frequency:     6.7376948533
  - # 4
    frequency:     6.7405112050
  - # 5
    frequency:     7.3934711625
  - # 6
    frequency:     8.5458770012
  - # 7
    frequency:     8.5458770012
  - # 8
    frequency:     9.7796403744
  - # 9
    frequency:     9.7796403744
  - # 10
    frequency:    10.4771514131
  - # 11
    frequency:    11.2965950839
  - # 12
    frequency:    11.2965950839

- q-position: [    0.4062500,    0.0104167,    0.0104167 ]
  weight: 24   
  band:
  - # 1
    frequency:     4.9317364125
  - # 2
    frequency:     4.9326885869
  - # 3
    frequency:     6.5881835285
  - # 4
    frequency:     6.5907018241
  - # 5
    frequency:     7.7255214554
  - # 6
    frequency:     8.5655775896
  - # 7
    frequency:     8.5655775896
  - # 8
    frequency:     9.9232645414
  - # 9
    frequency:     9.9232645414
  - # 10
    frequency:    10.2516769392
  - # 11
    frequency:    11.1722385271
  - # 12
    frequency:    11.1722385271

- q-position: [    0.4270833,    0.0104167,    0.0104167 ]
  weight: 24   
  band:
  - # 1
    frequency:     5.1418433879
  - # 2
    frequency:     5.1423237758
  - # 3
    frequency:     6.4314243813
  - # 4
    frequency:     6.4336293776
  - # 5
    frequency:     8.0479955610
  - # 6
    frequency:     8.5817246460
  - # 7
    frequency:     8.5817246460
  - # 8
    frequency:    10.0147329637
  - # 9
    frequency:    10.0674821167
  - # 10
    frequency:    10.0674821167
  - # 11
    frequency:    11.0437851719
  - # 12
    frequency:    11.0437851719

- q-position: [    0.4479167,    0.0104167,    0.0104167 ]
  weight: 24   
  band:
  - # 1
    frequency:     5.3459139867
  - # 2
    frequency:     5.3459489298
  - # 3
    frequency:     6.2675343963
  - # 4
    frequency:     6.2694103892
  - # 5
    frequency:     8.3605898293
  - # 6
    frequency:     8.5940625658
  - # 7
    frequency:     8.5940625658
  - # 8
    frequency:     9.7664440154
  - # 9
    frequency:    10.2116520610
  - # 10
    frequency:    10.2116520610
  - # 11
    frequency:    10.9116437911
  - # 12
    frequency:    10.9116437911

- q-position: [    0.4687500,    0.0104167,    0.0104167 ]
  weight: 24   
  band:
  - # 1
    frequency:     5.5433699704
  - # 2
    frequency:     5.5437568736
  - # 3
    frequency:     6.0966407686
  - # 4
    frequency:     6.0981714202
  - # 5
    frequency:     8.6023969935
  - # 6
    frequency:     8.6023969935
  - # 7
    frequency:     8.6630254687
  - # 8
    frequency:     9.5069538888
  - # 9
    frequency:    10.3551571308
  - # 10
    frequency:    10.3551571308
  - # 11
    frequency:    10.7762559747
  - # 12
    frequency:    10.7762559747

- q-position: [    0.4895833,    0.0104167,    0.0104167 ]
  weight: 24   
  band:
  - # 1
    frequency:     5.7344044112
  - # 2
    frequency:     5.7351917562
  - # 3
    frequency:     5.9188812427
  - # 4
    frequency:     5.9200493746
  - # 5
    frequency:     8.6065971019
  - # 6
    frequency:     8.6065971019
  - # 7
    frequency:     8.9550480155
  - # 8
    frequency:     9.2364267277
  - # 9
    frequency:    10.4973502098
  - # 10
    frequency:    10.4973502098
  - # 11
    frequency:    10.6381510649
  - # 12
    frequency:    10.6381510649

- q-position: [    0.0312500,    0.0312500,    0.0104167 ]
  weight: 24   
  band:
  - # 1
    frequency:     0.4459528671
  - # 2
    frequency:     0.5744028421
  - # 3
    frequency:     1.0324980239
  - # 4
    frequency:     8.0997713362
  - # 5
    frequency:     8.0997713362
  - # 6
    frequency:     8.1003438756
  - # 7
    frequency:     8.1181884179
  - # 8
    frequency:     8.1181884179
  - # 9
    frequency:     8.1503578266
  - # 10
    frequency:    12.4941920509
  - # 11
    frequency:    12.4941920509
  - # 12
    frequency:    12.4984009595

- q-position: [    0.0520833,    0.0312500,    0.0104167 ]
  weight: 48   
  band:
  - # 1
    frequency:     0.6413807005
  - # 2
    frequency:     0.7927977372
  - # 3
    frequency:     1.3757786307
  - # 4
    frequency:     8.0835308267
  - # 5
    frequency:     8.0995320718
  - # 6
    frequency:     8.1019016887
  - # 7
    frequency:     8.1073481682
  - # 8
    frequency:     8.1436330972
  - # 9
    frequency:     8.1839303018
  - # 10
    frequency:    12.4705569544
  - # 11
    frequency:    12.4791539603
  - # 12
    frequency:    12.4832025137

- q-position: [    0.0729167,    0.0312500,    0.0104167 ]
  weight: 48   
  band:
  - # 1
    frequency:     0.8959604954
  - # 2
    frequency:     1.0369409451
  - # 3
    frequency:     1.7471216925
  - # 4
    frequency:     8.0591769207
  - # 5
    frequency:     8.0774806361
  - # 6
    frequency:     8.1052392774
  - # 7
    frequency:     8.1196888456
  - # 8
    frequency:     8.1803459686
  - # 9
    frequency:     8.2268944505
  - # 10
    frequency:    12.4350991938
  - # 11
    frequency:    12.4566392297
  - # 12
    frequency:    12.4604467032

- q-position: [    0.0937500,    0.0312500,    0.0104167 ]
  weight: 48   
  band:
  - # 1
    frequency:     1.1663763335
  - # 2
    frequency:     1.2913147108
  - # 3
    frequency:     2.1329730281
  - # 4
    frequency:     8.0267179848
  - # 5
    frequency:     8.0449362660
  - # 6
    frequency:     8.1168157528
  - # 7
    frequency:     8.1362175947
  - # 8
    frequency:     8.2283412630
  - # 9
    frequency:     8.2793488516
  - # 10
    frequency:    12.3878130910
  - # 11
    frequency:    12.4266988993
  - # 12
    frequency:    12.4301839160

- q-position: [    0.1145833,    0.0312500,    0.0104167 ]
  weight: 48   
  band:
  - # 1
    frequency:     1.4400522905
  - # 2
    frequency:     1.5499102461
  - # 3
    frequency:     2.5266277167
  - # 4
    frequency:     7.9861654009
  - # 5
    frequency:     8.0042835110
  - # 6
    frequency:     8.1335691013
  - # 7
    frequency:     8.1564807087
  - # 8
    frequency:     8.2873447867
  - # 9
    frequency:     8.3412710674
  - # 10
    frequency:    12.3286918372
  - # 11
    frequency:    12.3894012779
  - # 12
    frequency:    12.3924815989

- q-position: [    0.1354167,    0.0312500,    0.0104167 ]
  weight: 48   
  band:
  - # 1
    frequency:     1.7129607124
  - # 2
    frequency:     1.8098945644
  - # 3
    frequency:     2.9240456960
  - # 4
    frequency:     7.9375337586
  - # 5
    frequency:     7.9555414455
  - # 6
    frequency:     8.1548031667
  - # 7
    frequency:     8.1800369150
  - # 8
    frequency:     8.3569200553
  - # 9
    frequency:     8.4124946711
  - # 10
    frequency:    12.2577281334
  - # 11
    frequency:    12.3448321623
  - # 12
    frequency:    12.3474244833

- q-position: [    0.1562500,    0.0312500,    0.0104167 ]
  weight: 48   
  band:
  - # 1
    frequency:     1.9835934298
  - # 2
    frequency:     2.0696858867
  - # 3
    frequency:     3.3225317351
  - # 4
    frequency:     7.8808410936
  - # 5
    frequency:     7.8987335467
  - # 6
    frequency:     8.1798257547
  - # 7
    frequency:     8.2064202687
  - # 8
    frequency:     8.4365244945
  - # 9
    frequency:     8.4927200016
  - # 10
    frequency:    12.1749149754
  - # 11
    frequency:    12.2930951099
  - # 12
    frequency:    12.2951148669

- q-position: [    0.1770833,    0.0312500,    0.0104167 ]
  weight: 48   
  band:
  - # 1
    frequency:     2.2512674231
  - # 2
    frequency:     2.3282683168
  - # 3
    frequency:     3.7201577482
  - # 4
    frequency:     7.8161091713
  - # 5
    frequency:     7.8338879956
  - # 6
    frequency:     8.2079497871
  - # 7
    frequency:     8.2351317409
  - # 8
    frequency:     8.5255387289
  - # 9
    frequency:     8.5815332639
  - # 10
    frequency:    12.0802465733
  - # 11
    frequency:    12.2343117649
  - # 12
    frequency:    12.2356729524

- q-position: [    0.1979167,    0.0312500,    0.0104167 ]
  weight: 48   
  band:
  - # 1
    frequency:     2.5155883657
  - # 2
    frequency:     2.5849119988
  - # 3
    frequency:     4.1154641043
  - # 4
    frequency:     7.7433638161
  - # 5
    frequency:     7.7610380103
  - # 6
    frequency:     8.2384936377
  - # 7
    frequency:     8.2656418755
  - # 8
    frequency:     8.6232857748
  - # 9
    frequency:     8.6784274636
  - # 10
    frequency:    11.9737193946
  - # 11
    frequency:    12.1686222378
  - # 12
    frequency:    12.1692372419

- q-position: [    0.2187500,    0.0312500,    0.0104167 ]
  weight: 48   
  band:
  - # 1
    frequency:     2.7762654049
  - # 2
    frequency:     2.8390456960
  - # 3
    frequency:     4.5072917941
  - # 4
    frequency:     7.6626352856
  - # 5
    frequency:     7.6802222046
  - # 6
    frequency:     8.2707825745
  - # 7
    frequency:     8.2973979052
  - # 8
    frequency:     8.7290460048
  - # 9
    frequency:     8.7828225280
  - # 10
    frequency:    11.8553333172
  - # 11
    frequency:    12.0959649883
  - # 12
    frequency:    12.0961855377

- q-position: [    0.2395833,    0.0312500,    0.0104167 ]
  weight: 48   
  band:
  - # 1
    frequency:     3.0330441236
  - # 2
    frequency:     3.0901935750
  - # 3
    frequency:     4.8946834740
  - # 4
    frequency:     7.5739586916
  - # 5
    frequency:     7.5914849590
  - # 6
    frequency:     8.3041517910
  - # 7
    frequency:     8.3298326768
  - # 8
    frequency:     8.8420698762
  - # 9
    frequency:     8.8940835013
  - # 10
    frequency:    11.7250928784
  - # 11
    frequency:    12.0160327034
  - # 12
    frequency:    12.0171800554

- q-position: [    0.2604167,    0.0312500,    0.0104167 ]
  weight: 48   
  band:
  - # 1
    frequency:     3.2856822582
  - # 2
    frequency:     3.3379416394
  - # 3
    frequency:     5.2768231063
  - # 4
    frequency:     7.4773744668
  - # 5
    frequency:     7.4948767960
  - # 6
    frequency:     8.3379508605
  - # 7
    frequency:     8.3623741983
  - # 8
    frequency:     8.9615890807
  - # 9
    frequency:     9.0115364497
  - # 10
    frequency:    11.5830086069
  - # 11
    frequency:    11.9296367222
  - # 12
    frequency:    11.9318040984

- q-position: [    0.2812500,    0.0312500,    0.0104167 ]
  weight: 48   
  band:
  - # 1
    frequency:     3.5339415921
  - # 2
    frequency:     3.5819189114
  - # 3
    frequency:     5.6529981153
  - # 4
    frequency:     7.3729288780
  - # 5
    frequency:     7.3904547485
  - # 6
    frequency:     8.3715492128
  - # 7
    frequency:     8.3944551964
  - # 8
    frequency:     9.0868263169
  - # 9
    frequency:     9.1344820695
  - # 10
    frequency:    11.4290984189
  - # 11
    frequency:    11.8369938269
  - # 12
    frequency:    11.8402764762

- q-position: [    0.3020833,    0.0312500,    0.0104167 ]
  weight: 48   
  band:
  - # 1
    frequency:     3.7775860573
  - # 2
    frequency:     3.8217864104
  - # 3
    frequency:     6.0225750856
  - # 4
    frequency:     7.2606745807
  - # 5
    frequency:     7.2782827136
  - # 6
    frequency:     8.4043421879
  - # 7
    frequency:     8.4255223388
  - # 8
    frequency:     9.2170037482
  - # 9
    frequency:     9.2622071491
  - # 10
    frequency:    11.2633890665
  - # 11
    frequency:    11.7383419303
  - # 12
    frequency:    11.7428371375

- q-position: [    0.3229167,    0.0312500,    0.0104167 ]
  weight: 48   
  band:
  - # 1
    frequency:     4.0163821480
  - # 2
    frequency:     4.0572304613
  - # 3
    frequency:     6.3849838123
  - # 4
    frequency:     7.1406712084
  - # 5
    frequency:     7.1584317883
  - # 6
    frequency:     8.4357572762
  - # 7
    frequency:     8.4550449063
  - # 8
    frequency:     9.3513501822
  - # 9
    frequency:     9.3939940846
  - # 10
    frequency:    11.0859176202
  - # 11
    frequency:    11.6339408275
  - # 12
    frequency:    11.6397478633

- q-position: [    0.3437500,    0.0312500,    0.0104167 ]
  weight: 48   
  band:
  - # 1
    frequency:     4.2501000882
  - # 2
    frequency:     4.2879585054
  - # 3
    frequency:     6.7397066131
  - # 4
    frequency:     7.0129859799
  - # 5
    frequency:     7.0309805906
  - # 6
    frequency:     8.4652602337
  - # 7
    frequency:     8.4825227840
  - # 8
    frequency:     9.4891070143
  - # 9
    frequency:     9.5291286504
  - # 10
    frequency:    10.8967329708
  - # 11
    frequency:    11.5240730307
  - # 12
    frequency:    11.5312930272

- q-position: [    0.3645833,    0.0312500,    0.0104167 ]
  weight: 48   
  band:
  - # 1
    frequency:     4.4785151353
  - # 2
    frequency:     4.5136964047
  - # 3
    frequency:     6.8776943054
  - # 4
    frequency:     6.8960155734
  - # 5
    frequency:     7.0862710119
  - # 6
    frequency:     8.4923608475
  - # 7
    frequency:     8.5074936912
  - # 8
    frequency:     9.6295329780
  - # 9
    frequency:     9.6669061961
  - # 10
    frequency:    10.6958973375
  - # 11
    frequency:    11.4090447253
  - # 12
    frequency:    11.4177804549

- q-position: [    0.3854167,    0.0312500,    0.0104167 ]
  weight: 48   
  band:
  - # 1
    frequency:     4.7014087850
  - # 2
    frequency:     4.7341866542
  - # 3
    frequency:     6.7348803641
  - # 4
    frequency:     6.7536313480
  - # 5
    frequency:     7.4242446145
  - # 6
    frequency:     8.5166181923
  - # 7
    frequency:     8.5295396099
  - # 8
    frequency:     9.7719077097
  - # 9
    frequency:     9.8066363591
  - # 10
    frequency:    10.4834877664
  - # 11
    frequency:    11.2891869496
  - # 12
    frequency:    11.2995424668

- q-position: [    0.4062500,    0.0312500,    0.0104167 ]
  weight: 48   
  band:
  - # 1
    frequency:     4.9185698035
  - # 2
    frequency:     4.9491871558
  - # 3
    frequency:     6.5846376241
  - # 4
    frequency:     6.6039310310
  - # 5
    frequency:     7.7532314179
  - # 6
    frequency:     8.5376452808
  - # 7
    frequency:     8.5482923945
  - # 8
    frequency:     9.9155339813
  - # 9
    frequency:     9.9476461713
  - # 10
    frequency:    10.2595976096
  - # 11
    frequency:    11.1648572941
  - # 12
    frequency:    11.1769373511

- q-position: [    0.4270833,    0.0312500,    0.0104167 ]
  weight: 48   
  band:
  - # 1
    frequency:     5.1297950774
  - # 2
    frequency:     5.1584703354
  - # 3
    frequency:     6.4270692817
  - # 4
    frequency:     6.4470266301
  - # 5
    frequency:     8.0728690627
  - # 6
    frequency:     8.5551130466
  - # 7
    frequency:     8.5634385656
  - # 8
    frequency:    10.0243379731
  - # 9
    frequency:    10.0597378826
  - # 10
    frequency:    10.0892807079
  - # 11
    frequency:    11.0364431259
  - # 12
    frequency:    11.0503520878

- q-position: [    0.4479167,    0.0312500,    0.0104167 ]
  weight: 48   
  band:
  - # 1
    frequency:     5.3348902947
  - # 2
    frequency:     5.3618224675
  - # 3
    frequency:     6.2622886018
  - # 4
    frequency:     6.2830394734
  - # 5
    frequency:     8.3828267002
  - # 6
    frequency:     8.5687536308
  - # 7
    frequency:     8.5747233016
  - # 8
    frequency:     9.7778391276
  - # 9
    frequency:    10.2038636363
  - # 10
    frequency:    10.2308970549
  - # 11
    frequency:    10.9043706964
  - # 12
    frequency:    10.9202097377

- q-position: [    0.4687500,    0.0312500,    0.0104167 ]
  weight: 48   
  band:
  - # 1
    frequency:     5.5336704816
  - # 2
    frequency:     5.5590431153
  - # 3
    frequency:     6.0904191520
  - # 4
    frequency:     6.1121006802
  - # 5
    frequency:     8.5783629593
  - # 6
    frequency:     8.5819536472
  - # 7
    frequency:     8.6828032556
  - # 8
    frequency:     9.5202518757
  - # 9
    frequency:    10.3472423652
  - # 10
    frequency:    10.3718228861
  - # 11
    frequency:    10.7691489522
  - # 12
    frequency:    10.7870022625

- q-position: [    0.4895833,    0.0312500,    0.0104167 ]
  weight: 48   
  band:
  - # 1
    frequency:     5.7259604154
  - # 2
    frequency:     5.7499446287
  - # 3
    frequency:     5.9115949335
  - # 4
    frequency:     5.9343516605
  - # 5
    frequency:     8.5838026080
  - # 6
    frequency:     8.5850009586
  - # 7
    frequency:     8.9725259350
  - # 8
    frequency:     9.2517488771
  - # 9
    frequency:    10.4888297314
  - # 10
    frequency:    10.5107203749
  - # 11
    frequency:    10.6320074176
  - # 12
    frequency:    10.6516539282

- q-position: [    0.0520833,    0.0520833,    0.0104167 ]
  weight: 24   
  band:
  - # 1
    frequency:     0.7199652432
  - # 2
    frequency:     0.9630243712
  - # 3
    frequency:     1.6791848601
  - # 4
    frequency:     8.0889778026
  - # 5
    frequency:     8.0909615416
  - # 6
    frequency:     8.0909615416
  - # 7
    frequency:     8.1273251954
  - # 8
    frequency:     8.1273251954
  - # 9
    frequency:     8.2265627169
  - # 10
    frequency:    12.4558454813
  - # 11
    frequency:    12.4558454813
  - # 12
    frequency:    12.4680100755

- q-position: [    0.0729167,    0.0520833,    0.0104167 ]
  weight: 48   
  band:
  - # 1
    frequency:     0.9009733323
  - # 2
    frequency:     1.1724879181
  - # 3
    frequency:     2.0172211049
  - # 4
    frequency:     8.0663868960
  - # 5
    frequency:     8.0852800550
  - # 6
    frequency:     8.1028750160
  - # 7
    frequency:     8.1030436922
  - # 8
    frequency:     8.1640448866
  - # 9
    frequency:     8.2779248710
  - # 10
    frequency:    12.4208773075
  - # 11
    frequency:    12.4338215856
  - # 12
    frequency:    12.4452631809

- q-position: [    0.0937500,    0.0520833,    0.0104167 ]
  weight: 48   
  band:
  - # 1
    frequency:     1.1350139372
  - # 2
    frequency:     1.4027812516
  - # 3
    frequency:     2.3741732380
  - # 4
    frequency:     8.0336308124
  - # 5
    frequency:     8.0702966157
  - # 6
    frequency:     8.0882184607
  - # 7
    frequency:     8.1192075631
  - # 8
    frequency:     8.2120680350
  - # 9
    frequency:     8.3377052548
  - # 10
    frequency:    12.3742433781
  - # 11
    frequency:    12.4045373861
  - # 12
    frequency:    12.4150121048

- q-position: [    0.1145833,    0.0520833,    0.0104167 ]
  weight: 48   
  band:
  - # 1
    frequency:     1.3919663208
  - # 2
    frequency:     1.6442486334
  - # 3
    frequency:     2.7425428853
  - # 4
    frequency:     7.9927024466
  - # 5
    frequency:     8.0296088139
  - # 6
    frequency:     8.0973131022
  - # 7
    frequency:     8.1390041043
  - # 8
    frequency:     8.2711146324
  - # 9
    frequency:     8.4056932073
  - # 10
    frequency:    12.3159364153
  - # 11
    frequency:    12.3680626114
  - # 12
    frequency:    12.3773241475

- q-position: [    0.1354167,    0.0520833,    0.0104167 ]
  weight: 48   
  band:
  - # 1
    frequency:     1.6580072768
  - # 2