<?xml version="1.0" encoding="ISO-8859-1"?>
<modeling>
 <generator>
  <i name="program" type="string">vasp</i>
  <i name="version" type="string">4.6.28 </i>
  <i name="subversion" type="string">25Jul05 complex  parallel</i>
  <i name="platform" type="string">LinuxIFC</i>
  <i name="date" type="string">2016 11 12</i>
  <i name="time" type="string">11:27:26</i>
 </generator>
 <incar>
  <i type="string" name="PREC">accurate</i>
  <i type="int" name="IALGO">    38</i>
  <i type="logical" name="ADDGRID"> T  </i>
  <i name="EDIFF">      0.00000001</i>
  <i type="int" name="IBRION">    -1</i>
  <i name="ENCUT">    750.00000000</i>
  <i type="logical" name="LREAL"> F  </i>
  <i type="int" name="ISMEAR">     0</i>
  <i name="SIGMA">      0.01000000</i>
  <i type="logical" name="LWAVE"> F  </i>
  <i type="logical" name="LCHARG"> F  </i>
 </incar>
 <kpoints>
  <generation param="Gamma">
   <v type="int" name="divisions">      12      12      12</v>
   <v name="usershift">      0.00000000      0.00000000      0.00000000</v>
   <v name="genvec1">      0.08333333      0.00000000      0.00000000</v>
   <v name="genvec2">      0.00000000      0.08333333      0.00000000</v>
   <v name="genvec3">      0.00000000      0.00000000      0.08333333</v>
   <v name="shift">      0.00000000      0.00000000      0.00000000</v>
  </generation>
  <varray name="kpointlist" >
   <v>       0.00000000      0.00000000      0.00000000</v>
   <v>       0.08333333      0.00000000      0.00000000</v>
   <v>       0.16666667      0.00000000      0.00000000</v>
   <v>       0.25000000      0.00000000      0.00000000</v>
   <v>       0.33333333      0.00000000      0.00000000</v>
   <v>       0.41666667      0.00000000      0.00000000</v>
   <v>       0.50000000      0.00000000      0.00000000</v>
   <v>       0.00000000      0.08333333      0.00000000</v>
   <v>       0.08333333      0.08333333      0.00000000</v>
   <v>       0.16666667      0.08333333      0.00000000</v>
   <v>       0.25000000      0.08333333      0.00000000</v>
   <v>       0.33333333      0.08333333      0.00000000</v>
   <v>       0.41666667      0.08333333      0.00000000</v>
   <v>       0.50000000      0.08333333      0.00000000</v>
   <v>       0.00000000      0.16666667      0.00000000</v>
   <v>       0.08333333      0.16666667      0.00000000</v>
   <v>       0.16666667      0.16666667      0.00000000</v>
   <v>       0.25000000      0.16666667      0.00000000</v>
   <v>       0.33333333      0.16666667      0.00000000</v>
   <v>       0.41666667      0.16666667      0.00000000</v>
   <v>       0.50000000      0.16666667      0.00000000</v>
   <v>       0.00000000      0.25000000      0.00000000</v>
   <v>       0.08333333      0.25000000      0.00000000</v>
   <v>       0.16666667      0.25000000      0.00000000</v>
   <v>       0.25000000      0.25000000      0.00000000</v>
   <v>       0.33333333      0.25000000      0.00000000</v>
   <v>       0.41666667      0.25000000      0.00000000</v>
   <v>       0.50000000      0.25000000      0.00000000</v>
   <v>       0.00000000      0.33333333      0.00000000</v>
   <v>       0.08333333      0.33333333      0.00000000</v>
   <v>       0.16666667      0.33333333      0.00000000</v>
   <v>       0.25000000      0.33333333      0.00000000</v>
   <v>       0.33333333      0.33333333      0.00000000</v>
   <v>       0.41666667      0.33333333      0.00000000</v>
   <v>       0.50000000      0.33333333      0.00000000</v>
   <v>       0.00000000      0.41666667      0.00000000</v>
   <v>       0.08333333      0.41666667      0.00000000</v>
   <v>       0.16666667      0.41666667      0.00000000</v>
   <v>       0.25000000      0.41666667      0.00000000</v>
   <v>       0.33333333      0.41666667      0.00000000</v>
   <v>       0.41666667      0.41666667      0.00000000</v>
   <v>       0.50000000      0.41666667      0.00000000</v>
   <v>       0.00000000      0.50000000      0.00000000</v>
   <v>       0.08333333      0.50000000      0.00000000</v>
   <v>       0.16666667      0.50000000      0.00000000</v>
   <v>       0.25000000      0.50000000      0.00000000</v>
   <v>       0.33333333      0.50000000      0.00000000</v>
   <v>       0.41666667      0.50000000      0.00000000</v>
   <v>       0.50000000      0.50000000      0.00000000</v>
   <v>       0.00000000      0.08333333      0.08333333</v>
   <v>       0.08333333      0.08333333      0.08333333</v>
   <v>       0.16666667      0.08333333      0.08333333</v>
   <v>       0.25000000      0.08333333      0.08333333</v>
   <v>       0.33333333      0.08333333      0.08333333</v>
   <v>       0.41666667      0.08333333      0.08333333</v>
   <v>       0.50000000      0.08333333      0.08333333</v>
   <v>       0.00000000      0.16666667      0.08333333</v>
   <v>       0.08333333      0.16666667      0.08333333</v>
   <v>       0.16666667      0.16666667      0.08333333</v>
   <v>       0.25000000      0.16666667      0.08333333</v>
   <v>       0.33333333      0.16666667      0.08333333</v>
   <v>       0.41666667      0.16666667      0.08333333</v>
   <v>       0.50000000      0.16666667      0.08333333</v>
   <v>       0.00000000      0.25000000      0.08333333</v>
   <v>       0.08333333      0.25000000      0.08333333</v>
   <v>       0.16666667      0.25000000      0.08333333</v>
   <v>       0.25000000      0.25000000      0.08333333</v>
   <v>       0.33333333      0.25000000      0.08333333</v>
   <v>       0.41666667      0.25000000      0.08333333</v>
   <v>       0.50000000      0.25000000      0.08333333</v>
   <v>       0.00000000      0.33333333      0.08333333</v>
   <v>       0.08333333      0.33333333      0.08333333</v>
   <v>       0.16666667      0.33333333      0.08333333</v>
   <v>       0.25000000      0.33333333      0.08333333</v>
   <v>       0.33333333      0.33333333      0.08333333</v>
   <v>       0.41666667      0.33333333      0.08333333</v>
   <v>       0.50000000      0.33333333      0.08333333</v>
   <v>       0.00000000      0.41666667      0.08333333</v>
   <v>       0.08333333      0.41666667      0.08333333</v>
   <v>       0.16666667      0.41666667      0.08333333</v>
   <v>       0.25000000      0.41666667      0.08333333</v>
   <v>       0.33333333      0.41666667      0.08333333</v>
   <v>       0.41666667      0.41666667      0.08333333</v>
   <v>       0.50000000      0.41666667      0.08333333</v>
   <v>       0.00000000      0.50000000      0.08333333</v>
   <v>       0.08333333      0.50000000      0.08333333</v>
   <v>       0.16666667      0.50000000      0.08333333</v>
   <v>       0.25000000      0.50000000      0.08333333</v>
   <v>       0.33333333      0.50000000      0.08333333</v>
   <v>       0.41666667      0.50000000      0.08333333</v>
   <v>       0.50000000      0.50000000      0.08333333</v>
   <v>       0.00000000      0.16666667      0.16666667</v>
   <v>       0.08333333      0.16666667      0.16666667</v>
   <v>       0.16666667      0.16666667      0.16666667</v>
   <v>       0.25000000      0.16666667      0.16666667</v>
   <v>       0.33333333      0.16666667      0.16666667</v>
   <v>       0.41666667      0.16666667      0.16666667</v>
   <v>       0.50000000      0.16666667      0.16666667</v>
   <v>       0.00000000      0.25000000      0.16666667</v>
   <v>       0.08333333      0.25000000      0.16666667</v>
   <v>       0.16666667      0.25000000      0.16666667</v>
   <v>       0.25000000      0.25000000      0.16666667</v>
   <v>       0.33333333      0.25000000      0.16666667</v>
   <v>       0.41666667      0.25000000      0.16666667</v>
   <v>       0.50000000      0.25000000      0.16666667</v>
   <v>       0.00000000      0.33333333      0.16666667</v>
   <v>       0.08333333      0.33333333      0.16666667</v>
   <v>       0.16666667      0.33333333      0.16666667</v>
   <v>       0.25000000      0.33333333      0.16666667</v>
   <v>       0.33333333      0.33333333      0.16666667</v>
   <v>       0.41666667      0.33333333      0.16666667</v>
   <v>       0.50000000      0.33333333      0.16666667</v>
   <v>       0.00000000      0.41666667      0.16666667</v>
   <v>       0.08333333      0.41666667      0.16666667</v>
   <v>       0.16666667      0.41666667      0.16666667</v>
   <v>       0.25000000      0.41666667      0.16666667</v>
   <v>       0.33333333      0.41666667      0.16666667</v>
   <v>       0.41666667      0.41666667      0.16666667</v>
   <v>       0.50000000      0.41666667      0.16666667</v>
   <v>       0.00000000      0.50000000      0.16666667</v>
   <v>       0.08333333      0.50000000      0.16666667</v>
   <v>       0.16666667      0.50000000      0.16666667</v>
   <v>       0.25000000      0.50000000      0.16666667</v>
   <v>       0.33333333      0.50000000      0.16666667</v>
   <v>       0.41666667      0.50000000      0.16666667</v>
   <v>       0.50000000      0.50000000      0.16666667</v>
   <v>       0.00000000      0.25000000      0.25000000</v>
   <v>       0.08333333      0.25000000      0.25000000</v>
   <v>       0.16666667      0.25000000      0.25000000</v>
   <v>       0.25000000      0.25000000      0.25000000</v>
   <v>       0.33333333      0.25000000      0.25000000</v>
   <v>       0.41666667      0.25000000      0.25000000</v>
   <v>       0.50000000      0.25000000      0.25000000</v>
   <v>       0.00000000      0.33333333      0.25000000</v>
   <v>       0.08333333      0.33333333      0.25000000</v>
   <v>       0.16666667      0.33333333      0.25000000</v>
   <v>       0.25000000      0.33333333      0.25000000</v>
   <v>       0.33333333      0.33333333      0.25000000</v>
   <v>       0.41666667      0.33333333      0.25000000</v>
   <v>       0.50000000      0.33333333      0.25000000</v>
   <v>       0.00000000      0.41666667      0.25000000</v>
   <v>       0.08333333      0.41666667      0.25000000</v>
   <v>       0.16666667      0.41666667      0.25000000</v>
   <v>       0.25000000      0.41666667      0.25000000</v>
   <v>       0.33333333      0.41666667      0.25000000</v>
   <v>       0.41666667      0.41666667      0.25000000</v>
   <v>       0.50000000      0.41666667      0.25000000</v>
   <v>       0.00000000      0.50000000      0.25000000</v>
   <v>       0.08333333      0.50000000      0.25000000</v>
   <v>       0.16666667      0.50000000      0.25000000</v>
   <v>       0.25000000      0.50000000      0.25000000</v>
   <v>       0.33333333      0.50000000      0.25000000</v>
   <v>       0.41666667      0.50000000      0.25000000</v>
   <v>       0.50000000      0.50000000      0.25000000</v>
   <v>       0.00000000      0.33333333      0.33333333</v>
   <v>       0.08333333      0.33333333      0.33333333</v>
   <v>       0.16666667      0.33333333      0.33333333</v>
   <v>       0.25000000      0.33333333      0.33333333</v>
   <v>       0.33333333      0.33333333      0.33333333</v>
   <v>       0.41666667      0.33333333      0.33333333</v>
   <v>       0.50000000      0.33333333      0.33333333</v>
   <v>       0.00000000      0.41666667      0.33333333</v>
   <v>       0.08333333      0.41666667      0.33333333</v>
   <v>       0.16666667      0.41666667      0.33333333</v>
   <v>       0.25000000      0.41666667      0.33333333</v>
   <v>       0.33333333      0.41666667      0.33333333</v>
   <v>       0.41666667      0.41666667      0.33333333</v>
   <v>       0.50000000      0.41666667      0.33333333</v>
   <v>       0.00000000      0.50000000      0.33333333</v>
   <v>       0.08333333      0.50000000      0.33333333</v>
   <v>       0.16666667      0.50000000      0.33333333</v>
   <v>       0.25000000      0.50000000      0.33333333</v>
   <v>       0.33333333      0.50000000      0.33333333</v>
   <v>       0.41666667      0.50000000      0.33333333</v>
   <v>       0.50000000      0.50000000      0.33333333</v>
   <v>       0.00000000      0.41666667      0.41666667</v>
   <v>       0.08333333      0.41666667      0.41666667</v>
   <v>       0.16666667      0.41666667      0.41666667</v>
   <v>       0.25000000      0.41666667      0.41666667</v>
   <v>       0.33333333      0.41666667      0.41666667</v>
   <v>       0.41666667      0.41666667      0.41666667</v>
   <v>       0.50000000      0.41666667      0.41666667</v>
   <v>       0.00000000      0.50000000      0.41666667</v>
   <v>       0.08333333      0.50000000      0.41666667</v>
   <v>       0.16666667      0.50000000      0.41666667</v>
   <v>       0.25000000      0.50000000      0.41666667</v>
   <v>       0.33333333      0.50000000      0.41666667</v>
   <v>       0.41666667      0.50000000      0.41666667</v>
   <v>       0.50000000      0.50000000      0.41666667</v>
   <v>       0.00000000      0.50000000      0.50000000</v>
   <v>       0.08333333      0.50000000      0.50000000</v>
   <v>       0.16666667      0.50000000      0.50000000</v>
   <v>       0.25000000      0.50000000      0.50000000</v>
   <v>       0.33333333      0.50000000      0.50000000</v>
   <v>       0.41666667      0.50000000      0.50000000</v>
   <v>       0.50000000      0.50000000      0.50000000</v>
  </varray>
  <varray name="weights" >
   <v>       0.00057870</v>
   <v>       0.00115741</v>
   <v>       0.00115741</v>
   <v>       0.00115741</v>
   <v>       0.00115741</v>
   <v>       0.00115741</v>
   <v>       0.00057870</v>
   <v>       0.00231481</v>
   <v>       0.00462963</v>
   <v>       0.00462963</v>
   <v>       0.00462963</v>
   <v>       0.00462963</v>
   <v>       0.00462963</v>
   <v>       0.00231481</v>
   <v>       0.00231481</v>
   <v>       0.00462963</v>
   <v>       0.00462963</v>
   <v>       0.00462963</v>
   <v>       0.00462963</v>
   <v>       0.00462963</v>
   <v>       0.00231481</v>
   <v>       0.00231481</v>
   <v>       0.00462963</v>
   <v>       0.00462963</v>
   <v>       0.00462963</v>
   <v>       0.00462963</v>
   <v>       0.00462963</v>
   <v>       0.00231481</v>
   <v>       0.00231481</v>
   <v>       0.00462963</v>
   <v>       0.00462963</v>
   <v>       0.00462963</v>
   <v>       0.00462963</v>
   <v>       0.00462963</v>
   <v>       0.00231481</v>
   <v>       0.00231481</v>
   <v>       0.00462963</v>
   <v>       0.00462963</v>
   <v>       0.00462963</v>
   <v>       0.00462963</v>
   <v>       0.00462963</v>
   <v>       0.00231481</v>
   <v>       0.00115741</v>
   <v>       0.00231481</v>
   <v>       0.00231481</v>
   <v>       0.00231481</v>
   <v>       0.00231481</v>
   <v>       0.00231481</v>
   <v>       0.00115741</v>
   <v>       0.00231481</v>
   <v>       0.00462963</v>
   <v>       0.00462963</v>
   <v>       0.00462963</v>
   <v>       0.00462963</v>
   <v>       0.00462963</v>
   <v>       0.00231481</v>
   <v>       0.00462963</v>
   <v>       0.00925926</v>
   <v>       0.00925926</v>
   <v>       0.00925926</v>
   <v>       0.00925926</v>
   <v>       0.00925926</v>
   <v>       0.00462963</v>
   <v>       0.00462963</v>
   <v>       0.00925926</v>
   <v>       0.00925926</v>
   <v>       0.00925926</v>
   <v>       0.00925926</v>
   <v>       0.00925926</v>
   <v>       0.00462963</v>
   <v>       0.00462963</v>
   <v>       0.00925926</v>
   <v>       0.00925926</v>
   <v>       0.00925926</v>
   <v>       0.00925926</v>
   <v>       0.00925926</v>
   <v>       0.00462963</v>
   <v>       0.00462963</v>
   <v>       0.00925926</v>
   <v>       0.00925926</v>
   <v>       0.00925926</v>
   <v>       0.00925926</v>
   <v>       0.00925926</v>
   <v>       0.00462963</v>
   <v>       0.00231481</v>
   <v>       0.00462963</v>
   <v>       0.00462963</v>
   <v>       0.00462963</v>
   <v>       0.00462963</v>
   <v>       0.00462963</v>
   <v>       0.00231481</v>
   <v>       0.00231481</v>
   <v>       0.00462963</v>
   <v>       0.00462963</v>
   <v>       0.00462963</v>
   <v>       0.00462963</v>
   <v>       0.00462963</v>
   <v>       0.00231481</v>
   <v>       0.00462963</v>
   <v>       0.00925926</v>
   <v>       0.00925926</v>
   <v>       0.00925926</v>
   <v>       0.00925926</v>
   <v>       0.00925926</v>
   <v>       0.00462963</v>
   <v>       0.00462963</v>
   <v>       0.00925926</v>
   <v>       0.00925926</v>
   <v>       0.00925926</v>
   <v>       0.00925926</v>
   <v>       0.00925926</v>
   <v>       0.00462963</v>
   <v>       0.00462963</v>
   <v>       0.00925926</v>
   <v>       0.00925926</v>
   <v>       0.00925926</v>
   <v>       0.00925926</v>
   <v>       0.00925926</v>
   <v>       0.00462963</v>
   <v>       0.00231481</v>
   <v>       0.00462963</v>
   <v>       0.00462963</v>
   <v>       0.00462963</v>
   <v>       0.00462963</v>
   <v>       0.00462963</v>
   <v>       0.00231481</v>
   <v>       0.00231481</v>
   <v>       0.00462963</v>
   <v>       0.00462963</v>
   <v>       0.00462963</v>
   <v>       0.00462963</v>
   <v>       0.00462963</v>
   <v>       0.00231481</v>
   <v>       0.00462963</v>
   <v>       0.00925926</v>
   <v>       0.00925926</v>
   <v>       0.00925926</v>
   <v>       0.00925926</v>
   <v>       0.00925926</v>
   <v>       0.00462963</v>
   <v>       0.00462963</v>
   <v>       0.00925926</v>
   <v>       0.00925926</v>
   <v>       0.00925926</v>
   <v>       0.00925926</v>
   <v>       0.00925926</v>
   <v>       0.00462963</v>
   <v>       0.00231481</v>
   <v>       0.00462963</v>
   <v>       0.00462963</v>
   <v>       0.00462963</v>
   <v>       0.00462963</v>
   <v>       0.00462963</v>
   <v>       0.00231481</v>
   <v>       0.00231481</v>
   <v>       0.00462963</v>
   <v>       0.00462963</v>
   <v>       0.00462963</v>
   <v>       0.00462963</v>
   <v>       0.00462963</v>
   <v>       0.00231481</v>
   <v>       0.00462963</v>
   <v>       0.00925926</v>
   <v>       0.00925926</v>
   <v>       0.00925926</v>
   <v>       0.00925926</v>
   <v>       0.00925926</v>
   <v>       0.00462963</v>
   <v>       0.00231481</v>
   <v>       0.00462963</v>
   <v>       0.00462963</v>
   <v>       0.00462963</v>
   <v>       0.00462963</v>
   <v>       0.00462963</v>
   <v>       0.00231481</v>
   <v>       0.00231481</v>
   <v>       0.00462963</v>
   <v>       0.00462963</v>
   <v>       0.00462963</v>
   <v>       0.00462963</v>
   <v>       0.00462963</v>
   <v>       0.00231481</v>
   <v>       0.00231481</v>
   <v>       0.00462963</v>
   <v>       0.00462963</v>
   <v>       0.00462963</v>
   <v>       0.00462963</v>
   <v>       0.00462963</v>
   <v>       0.00231481</v>
   <v>       0.00057870</v>
   <v>       0.00115741</v>
   <v>       0.00115741</v>
   <v>       0.00115741</v>
   <v>       0.00115741</v>
   <v>       0.00115741</v>
   <v>       0.00057870</v>
  </varray>
 </kpoints>
 <parameters>
  <separator name="general" >
   <i type="string" name="SYSTEM">unknown system</i>
   <i type="logical" name="LCOMPAT"> F  </i>
  </separator>
  <separator name="electronic" >
   <i type="string" name="PREC">accura</i>
   <i name="ENMAX">    750.00000000</i>
   <i name="ENAUG">    291.05200000</i>
   <i name="EDIFF">      0.00000001</i>
   <i type="int" name="IALGO">    38</i>
   <i type="int" name="IWAVPR">    10</i>
   <i type="int" name="NBANDS">    65</i>
   <i name="NELECT">     96.00000000</i>
   <separator name="electronic smearing" >
    <i type="int" name="ISMEAR">     0</i>
    <i name="SIGMA">      0.01000000</i>
   </separator>
   <separator name="electronic projectors" >
    <i type="logical" name="LREAL"> F  </i>
    <v name="ROPT">      0.00000000</v>
    <i type="int" name="LMAXPAW">  -100</i>
    <i type="int" name="LMAXMIX">     2</i>
   </separator>
   <separator name="electronic startup" >
    <i type="int" name="ISTART">     0</i>
    <i type="int" name="ICHARG">     2</i>
    <i type="int" name="INIWAV">     1</i>
   </separator>
   <separator name="electronic spin" >
    <i type="int" name="ISPIN">     1</i>
    <i type="logical" name="LNONCOLLINEAR"> F  </i>
    <v name="MAGMOM">      1.00000000      1.00000000      1.00000000      1.00000000      1.00000000      1.00000000      1.00000000      1.00000000      1.00000000      1.00000000      1.00000000      1.00000000      1.00000000      1.00000000      1.00000000      1.00000000      1.00000000      1.00000000      1.00000000      1.00000000
      1.00000000      1.00000000      1.00000000      1.00000000      1.00000000      1.00000000      1.00000000      1.00000000      1.00000000      1.00000000      1.00000000      1.00000000</v>
    <i name="NUPDOWN">     -1.00000000</i>
    <i type="logical" name="LSORBIT"> F  </i>
    <v name="SAXIS">      0.00000000      0.00000000      1.00000000</v>
    <i type="logical" name="LSPIRAL"> F  </i>
    <v name="QSPIRAL">      0.00000000      0.00000000      0.00000000</v>
    <i type="logical" name="LZEROZ"> F  </i>
   </separator>
   <separator name="electronic exchange-correlation" >
    <i type="string" name="GGA">--</i>
    <i type="int" name="VOSKOWN">     0</i>
    <i type="logical" name="LASPH"> F  </i>
    <i type="logical" name="LMETAGGA"> F  </i>
    <i type="string" name="GGA2">--</i>
   </separator>
   <separator name="electronic convergence" >
    <i type="int" name="NELM">    60</i>
    <i type="int" name="NELMDL">     0</i>
    <i type="int" name="NELMIN">     2</i>
    <i name="ENINI">    750.00000000</i>
    <separator name="electronic convergence detail" >
     <i type="logical" name="LDIAG"> T  </i>
     <i name="WEIMIN">      0.00000000</i>
     <i name="EBREAK">      0.00000000</i>
     <i name="DEPER">      0.30000000</i>
     <i type="int" name="NRMM">     4</i>
     <i name="TIME">      0.10000000</i>
    </separator>
   </separator>
   <separator name="electronic mixer" >
    <i name="AMIX">      0.40000000</i>
    <i name="BMIX">      1.00000000</i>
    <i name="AMIN">      0.10000000</i>
    <i name="AMIX_MAG">      1.60000000</i>
    <i name="BMIX_MAG">      1.00000000</i>
    <separator name="electronic mixer details" >
     <i type="int" name="IMIX">     4</i>
     <i type="int" name="MAXMIX">   -45</i>
     <i name="WC">    100.00000000</i>
     <i type="int" name="INIMIX">     1</i>
     <i type="int" name="MIXPRE">     1</i>
     <i type="int" name="MREMOVE">     5</i>
    </separator>
   </separator>
   <separator name="electronic dipolcorrection" >
    <i type="int" name="IDIPOL">     0</i>
    <i type="logical" name="LDIPOL"> F  </i>
    <v name="DIPOL">   -100.00000000</v>
    <i name="EFIELD">      0.00000000</i>
   </separator>
  </separator>
  <separator name="grids" >
   <i type="int" name="NGX">    70</i>
   <i type="int" name="NGY">    70</i>
   <i type="int" name="NGZ">    70</i>
   <i type="int" name="NGXF">   140</i>
   <i type="int" name="NGYF">   140</i>
   <i type="int" name="NGZF">   140</i>
   <i type="logical" name="ADDGRID"> T  </i>
  </separator>
  <separator name="ionic" >
   <i type="int" name="NSW">     0</i>
   <i type="int" name="IBRION">    -1</i>
   <i type="int" name="ISIF">     2</i>
   <i name="PSTRESS">      0.00000000</i>
   <i name="EDIFFG">      0.00000010</i>
   <i type="int" name="NFREE">     0</i>
   <i name="POTIM">      0.50000000</i>
   <i name="SMASS">     -3.00000000</i>
  </separator>
  <separator name="ionic md" >
   <i name="TEBEG">      0.00010000</i>
   <i name="TEEND">      0.00010000</i>
   <i type="int" name="NBLOCK">     1</i>
   <i type="int" name="KBLOCK">     1</i>
   <i type="int" name="NPACO">   256</i>
   <i name="APACO">     16.00000000</i>
  </separator>
  <separator name="symmetry" >
   <i type="int" name="ISYM">     2</i>
   <i name="SYMPREC">      0.00001000</i>
  </separator>
  <separator name="dos" >
   <i type="logical" name="LORBIT"> F  </i>
   <v name="RWIGS">     -1.00000000</v>
   <i type="int" name="NEDOS">   301</i>
   <i name="EMIN">     10.00000000</i>
   <i name="EMAX">    -10.00000000</i>
  </separator>
  <separator name="writing" >
   <i type="int" name="NWRITE">     2</i>
   <i type="logical" name="LWAVE"> F  </i>
   <i type="logical" name="LCHARG"> F  </i>
   <i type="logical" name="LPARD"> F  </i>
   <i type="logical" name="LVTOT"> F  </i>
   <i type="logical" name="LELF"> F  </i>
   <i type="logical" name="LOPTICS"> F  </i>
   <i name="STM">      0.00000000</i>
  </separator>
  <separator name="performance" >
   <i type="int" name="NPAR">     4</i>
   <i type="int" name="NSIM">     4</i>
   <i type="int" name="NBLK">   256</i>
   <i type="logical" name="LPLANE"> T  </i>
   <i type="logical" name="LCRITICAL_MEM"> F  </i>
   <i type="logical" name="LSCALAPACK"> F  </i>
   <i type="logical" name="LSCALU"> F  </i>
   <i type="logical" name="LASYNC"> F  </i>
  </separator>
  <separator name="miscellaneous" >
   <i type="int" name="IDIOT">     3</i>
   <i type="logical" name="LMUSIC"> F  </i>
   <v name="POMASS">     26.98200000</v>
   <i type="logical" name="LCORR"> T  </i>
  </separator>
  <i type="logical" name="LREAL_COMPAT"> F  </i>
  <i type="logical" name="GGA_COMPAT"> T  </i>
  <i type="logical" name="LBERRY"> F  </i>
  <i type="int" name="ICORELEVEL">     0</i>
  <i type="logical" name="LDAU"> F  </i>
  <i type="int" name="I_CONSTRAINED_M">     0</i>
 </parameters>
 <atominfo>
  <atoms>      32</atoms>
  <types>       1</types>
  <array name="atoms" >
   <dimension dim="1">ion</dimension>
   <field type="string">element</field>
   <field type="int">atomtype</field>
   <set>
    <rc><c>Al</c><c>   1</c></rc>
    <rc><c>Al</c><c>   1</c></rc>
    <rc><c>Al</c><c>   1</c></rc>
    <rc><c>Al</c><c>   1</c></rc>
    <rc><c>Al</c><c>   1</c></rc>
    <rc><c>Al</c><c>   1</c></rc>
    <rc><c>Al</c><c>   1</c></rc>
    <rc><c>Al</c><c>   1</c></rc>
    <rc><c>Al</c><c>   1</c></rc>
    <rc><c>Al</c><c>   1</c></rc>
    <rc><c>Al</c><c>   1</c></rc>
    <rc><c>Al</c><c>   1</c></rc>
    <rc><c>Al</c><c>   1</c></rc>
    <rc><c>Al</c><c>   1</c></rc>
    <rc><c>Al</c><c>   1</c></rc>
    <rc><c>Al</c><c>   1</c></rc>
    <rc><c>Al</c><c>   1</c></rc>
    <rc><c>Al</c><c>   1</c></rc>
    <rc><c>Al</c><c>   1</c></rc>
    <rc><c>Al</c><c>   1</c></rc>
    <rc><c>Al</c><c>   1</c></rc>
    <rc><c>Al</c><c>   1</c></rc>
    <rc><c>Al</c><c>   1</c></rc>
    <rc><c>Al</c><c>   1</c></rc>
    <rc><c>Al</c><c>   1</c></rc>
    <rc><c>Al</c><c>   1</c></rc>
    <rc><c>Al</c><c>   1</c></rc>
    <rc><c>Al</c><c>   1</c></rc>
    <rc><c>Al</c><c>   1</c></rc>
    <rc><c>Al</c><c>   1</c></rc>
    <rc><c>Al</c><c>   1</c></rc>
    <rc><c>Al</c><c>   1</c></rc>
   </set>
  </array>
  <array name="atomtypes" >
   <dimension dim="1">type</dimension>
   <field type="int">atomspertype</field>
   <field type="string">element</field>
   <field>mass</field>
   <field>valence</field>
   <field type="string">pseudopotential</field>
   <set>
    <rc><c>  32</c><c>Al</c><c>     26.98200000</c><c>      3.00000000</c><c> PAW_PBE Al 04Jan2001                   </c></rc>
   </set>
  </array>
 </atominfo>
 <structure name="initialpos" >
  <crystal>
   <varray name="basis" >
    <v>       7.67088210      0.00000000      0.00000000</v>
    <v>       0.00000000      7.67088210      0.00000000</v>
    <v>       0.00000000      0.00000000      7.67088210</v>
   </varray>
   <i name="volume">    451.37336024</i>
   <varray name="rec_basis" >
    <v>       0.13036310      0.00000000      0.00000000</v>
    <v>       0.00000000      0.13036310      0.00000000</v>
    <v>       0.00000000      0.00000000      0.13036310</v>
   </varray>
  </crystal>
  <varray name="positions" >
   <v>       0.25130363      0.25000000      0.00000000</v>
   <v>       0.75000000      0.25000000      0.00000000</v>
   <v>       0.25000000      0.75000000      0.00000000</v>
   <v>       0.75000000      0.75000000      0.00000000</v>
   <v>       0.25000000      0.25000000      0.50000000</v>
   <v>       0.75000000      0.25000000      0.50000000</v>
   <v>       0.25000000      0.75000000      0.50000000</v>
   <v>       0.75000000      0.75000000      0.50000000</v>
   <v>       0.25000000      0.00000000      0.25000000</v>
   <v>       0.75000000      0.00000000      0.25000000</v>
   <v>       0.25000000      0.50000000      0.25000000</v>
   <v>       0.75000000      0.50000000      0.25000000</v>
   <v>       0.25000000      0.00000000      0.75000000</v>
   <v>       0.75000000      0.00000000      0.75000000</v>
   <v>       0.25000000      0.50000000      0.75000000</v>
   <v>       0.75000000      0.50000000      0.75000000</v>
   <v>       0.00000000      0.25000000      0.25000000</v>
   <v>       0.50000000      0.25000000      0.25000000</v>
   <v>       0.00000000      0.75000000      0.25000000</v>
   <v>       0.50000000      0.75000000      0.25000000</v>
   <v>       0.00000000      0.25000000      0.75000000</v>
   <v>       0.50000000      0.25000000      0.75000000</v>
   <v>       0.00000000      0.75000000      0.75000000</v>
   <v>       0.50000000      0.75000000      0.75000000</v>
   <v>       0.00000000      0.00000000      0.00000000</v>
   <v>       0.50000000      0.00000000      0.00000000</v>
   <v>       0.00000000      0.50000000      0.00000000</v>
   <v>       0.50000000      0.50000000      0.00000000</v>
   <v>       0.00000000      0.00000000      0.50000000</v>
   <v>       0.50000000      0.00000000      0.50000000</v>
   <v>       0.00000000      0.50000000      0.50000000</v>
   <v>       0.50000000      0.50000000      0.50000000</v>
  </varray>
 </structure>
 <calculation>
  <scstep>
   <time name="dav"> 1631.89 1649.25</time>
   <time name="total"> 1636.40 1653.81</time>
   <energy>
    <i name="alphaZ">     -7.61990802</i>
    <i name="ewald">  -2478.73017096</i>
    <i name="hartreedc">     -2.10401837</i>
    <i name="XCdc">   -830.39433941</i>
    <i name="pawpsdc">   1137.73615723</i>
    <i name="pawaedc">   -115.16745734</i>
    <i name="eentropy">     -0.00038140</i>
    <i name="bandstr">    794.23200792</i>
    <i name="atom">   1713.23509266</i>
    <i name="e_fr_energy">    211.18698231</i>
    <i name="e_wo_entrp">    211.18736371</i>
    <i name="e_0_energy">    211.18717301</i>
   </energy>
  </scstep>
  <scstep>
   <time name="dav"> 1830.39 1837.90</time>
   <time name="total"> 1830.45 1837.96</time>
   <energy>
    <i name="e_fr_energy">    -98.02996992</i>
    <i name="e_wo_entrp">    -98.02950178</i>
    <i name="e_0_energy">    -98.02973585</i>
   </energy>
  </scstep>
  <scstep>
   <time name="dav"> 1831.84 1838.09</time>
   <time name="total"> 1831.89 1838.15</time>
   <energy>
    <i name="e_fr_energy">   -116.73085751</i>
    <i name="e_wo_entrp">   -116.73032587</i>
    <i name="e_0_energy">   -116.73059169</i>
   </energy>
  </scstep>
  <scstep>
   <time name="dav"> 1218.50 1221.40</time>
   <time name="total"> 1218.55 1221.45</time>
   <energy>
    <i name="e_fr_energy">   -117.17298440</i>
    <i name="e_wo_entrp">   -117.17239844</i>
    <i name="e_0_energy">   -117.17269142</i>
   </energy>
  </scstep>
  <scstep>
   <time name="dav">  805.97  806.15</time>
   <time name="total">  844.57  844.77</time>
   <energy>
    <i name="e_fr_energy">   -117.17844837</i>
    <i name="e_wo_entrp">   -117.17786391</i>
    <i name="e_0_energy">   -117.17815614</i>
   </energy>
  </scstep>
  <scstep>
   <time name="dav">  793.24  793.44</time>
   <time name="total">  834.28  834.49</time>
   <energy>
    <i name="e_fr_energy">   -116.67962501</i>
    <i name="e_wo_entrp">   -116.67914442</i>
    <i name="e_0_energy">   -116.67938472</i>
   </energy>
  </scstep>
  <scstep>
   <time name="dav">  769.81  769.99</time>
   <time name="total">  810.84  811.03</time>
   <energy>
    <i name="e_fr_energy">   -116.32104566</i>
    <i name="e_wo_entrp">   -116.32063761</i>
    <i name="e_0_energy">   -116.32084163</i>
   </energy>
  </scstep>
  <scstep>
   <time name="dav">  822.96  823.15</time>
   <time name="total">  863.91  864.12</time>
   <energy>
    <i name="e_fr_energy">   -116.32125380</i>
    <i name="e_wo_entrp">   -116.32084121</i>
    <i name="e_0_energy">   -116.32104751</i>
   </energy>
  </scstep>
  <scstep>
   <time name="dav">  800.40  800.58</time>
   <time name="total">  840.97  841.17</time>
   <energy>
    <i name="e_fr_energy">   -116.32128729</i>
    <i name="e_wo_entrp">   -116.32087160</i>
    <i name="e_0_energy">   -116.32107945</i>
   </energy>
  </scstep>
  <scstep>
   <time name="dav">  804.38  813.37</time>
   <time name="total">  845.02  854.46</time>
   <energy>
    <i name="e_fr_energy">   -116.32129108</i>
    <i name="e_wo_entrp">   -116.32087502</i>
    <i name="e_0_energy">   -116.32108305</i>
   </energy>
  </scstep>
  <scstep>
   <time name="dav">  808.95  809.12</time>
   <time name="total">  851.97  852.16</time>
   <energy>
    <i name="e_fr_energy">   -116.32129021</i>
    <i name="e_wo_entrp">   -116.32087410</i>
    <i name="e_0_energy">   -116.32108215</i>
   </energy>
  </scstep>
  <scstep>
   <time name="dav">  607.15  607.30</time>
   <time name="total">  650.22  650.37</time>
   <energy>
    <i name="e_fr_energy">   -116.32128990</i>
    <i name="e_wo_entrp">   -116.32087375</i>
    <i name="e_0_energy">   -116.32108183</i>
   </energy>
  </scstep>
  <scstep>
   <time name="dav">  552.09  552.22</time>
   <time name="total">  595.24  595.39</time>
   <energy>
    <i name="e_fr_energy">   -116.32128980</i>
    <i name="e_wo_entrp">   -116.32087364</i>
    <i name="e_0_energy">   -116.32108172</i>
   </energy>
  </scstep>
  <scstep>
   <time name="dav">  541.61  541.78</time>
   <time name="total">  584.80  585.01</time>
   <energy>
    <i name="e_fr_energy">   -116.32128979</i>
    <i name="e_wo_entrp">   -116.32087363</i>
    <i name="e_0_energy">   -116.32108171</i>
   </energy>
  </scstep>
  <scstep>
   <time name="dav">  540.23  540.35</time>
   <time name="total">  542.56  542.69</time>
   <energy>
    <i name="alphaZ">     -7.61990802</i>
    <i name="ewald">  -2478.73017096</i>
    <i name="hartreedc">     -4.63462185</i>
    <i name="XCdc">   -825.74887676</i>
    <i name="pawpsdc">   1161.01975419</i>
    <i name="pawaedc">   -139.88036287</i>
    <i name="eentropy">     -0.00041616</i>
    <i name="bandstr">    466.03821999</i>
    <i name="atom">   1713.23509266</i>
    <i name="e_fr_energy">   -116.32128978</i>
    <i name="e_wo_entrp">   -116.32087363</i>
    <i name="e_0_energy">   -116.32108170</i>
   </energy>
  </scstep>
  <structure>
   <crystal>
    <varray name="basis" >
     <v>       7.67088210      0.00000000      0.00000000</v>
     <v>       0.00000000      7.67088210      0.00000000</v>
     <v>       0.00000000      0.00000000      7.67088210</v>
    </varray>
    <i name="volume">    451.37336024</i>
    <varray name="rec_basis" >
     <v>       0.13036310      0.00000000      0.00000000</v>
     <v>       0.00000000      0.13036310      0.00000000</v>
     <v>       0.00000000      0.00000000      0.13036310</v>
    </varray>
   </crystal>
   <varray name="positions" >
    <v>       0.25130363      0.25000000      0.00000000</v>
    <v>       0.75000000      0.25000000      0.00000000</v>
    <v>       0.25000000      0.75000000      0.00000000</v>
    <v>       0.75000000      0.75000000      0.00000000</v>
    <v>       0.25000000      0.25000000      0.50000000</v>
    <v>       0.75000000      0.25000000      0.50000000</v>
    <v>       0.25000000      0.75000000      0.50000000</v>
    <v>       0.75000000      0.75000000      0.50000000</v>
    <v>       0.25000000      0.00000000      0.25000000</v>
    <v>       0.75000000      0.00000000      0.25000000</v>
    <v>       0.25000000      0.50000000      0.25000000</v>
    <v>       0.75000000      0.50000000      0.25000000</v>
    <v>       0.25000000      0.00000000      0.75000000</v>
    <v>       0.75000000      0.00000000      0.75000000</v>
    <v>       0.25000000      0.50000000      0.75000000</v>
    <v>       0.75000000      0.50000000      0.75000000</v>
    <v>       0.00000000      0.25000000      0.25000000</v>
    <v>       0.50000000      0.25000000      0.25000000</v>
    <v>       0.00000000      0.75000000      0.25000000</v>
    <v>       0.50000000      0.75000000      0.25000000</v>
    <v>       0.00000000      0.25000000      0.75000000</v>
    <v>       0.50000000      0.25000000      0.75000000</v>
    <v>       0.00000000      0.75000000      0.75000000</v>
    <v>       0.50000000      0.75000000      0.75000000</v>
    <v>       0.00000000      0.00000000      0.00000000</v>
    <v>       0.50000000      0.00000000      0.00000000</v>
    <v>       0.00000000      0.50000000      0.00000000</v>
    <v>       0.50000000      0.50000000      0.00000000</v>
    <v>       0.00000000      0.00000000      0.50000000</v>
    <v>       0.50000000      0.00000000      0.50000000</v>
    <v>       0.00000000      0.50000000      0.50000000</v>
    <v>       0.50000000      0.50000000      0.50000000</v>
   </varray>
  </structure>
  <varray name="forces" >
   <v>      -0.08309833      0.00000000     -0.00000000</v>
   <v>       0.00266711     -0.00000000      0.00000000</v>
   <v>      -0.00027140      0.00000000     -0.00000000</v>
   <v>       0.00074770     -0.00000000     -0.00000000</v>
   <v>      -0.00027140      0.00000000      0.00000000</v>
   <v>       0.00074770      0.00000000      0.00000000</v>
   <v>       0.00058407      0.00000000     -0.00000000</v>
   <v>      -0.00063294     -0.00000000     -0.00000000</v>
   <v>      -0.00145626      0.00003930     -0.00003930</v>
   <v>      -0.00028290     -0.00000306      0.00000306</v>
   <v>      -0.00145626     -0.00003930     -0.00003930</v>
   <v>      -0.00028290      0.00000306      0.00000306</v>
   <v>      -0.00145626      0.00003930      0.00003930</v>
   <v>      -0.00028290     -0.00000306     -0.00000306</v>
   <v>      -0.00145626     -0.00003930      0.00003930</v>
   <v>      -0.00028290      0.00000306     -0.00000306</v>
   <v>       0.01065219     -0.00000000     -0.01148087</v>
   <v>       0.01088228      0.00000000      0.01182075</v>
   <v>       0.00004074      0.00000000     -0.00002781</v>
   <v>       0.00004583     -0.00000000      0.00003128</v>
   <v>       0.01065219     -0.00000000      0.01148087</v>
   <v>       0.01088228      0.00000000     -0.01182075</v>
   <v>       0.00004074      0.00000000      0.00002781</v>
   <v>       0.00004583     -0.00000000     -0.00003128</v>
   <v>       0.01065219      0.01148087      0.00000000</v>
   <v>       0.01088228     -0.01182075     -0.00000000</v>
   <v>       0.01065219     -0.01148087     -0.00000000</v>
   <v>       0.01088228      0.01182075     -0.00000000</v>
   <v>       0.00004074      0.00002781     -0.00000000</v>
   <v>       0.00004583     -0.00003128      0.00000000</v>
   <v>       0.00004074     -0.00002781      0.00000000</v>
   <v>       0.00004583      0.00003128      0.00000000</v>
  </varray>
  <varray name="stress" >
   <v>     171.99310911     -0.00000000      0.00000000</v>
   <v>       0.00000000    171.98906206      0.00000000</v>
   <v>       0.00000000      0.00000000    171.98906206</v>
  </varray>
  <energy>
   <i name="e_fr_energy">   -116.32128978</i>
   <i name="e_wo_entrp">   -116.32108170</i>
   <i name="e_0_energy">     -0.00041616</i>
  </energy>
  <eigenvalues>
   <array>
    <dimension dim="1">band</dimension>
    <dimension dim="2">kpoint</dimension>
    <dimension dim="3">spin</dimension>
    <field>eigene</field>
    <field>occ</field>
    <set>
     <set comment="spin 1">
      <set comment="kpoint 1">
       <r>  -2.5256  1.0000</r>
       <r>  -0.0424  1.0000</r>
       <r>  -0.0383  1.0000</r>
       <r>  -0.0383  1.0000</r>
       <r>  -0.0383  1.0000</r>
       <r>  -0.0383  1.0000</r>
       <r>  -0.0342  1.0000</r>
       <r>   2.3901  1.0000</r>
       <r>   2.3946  1.0000</r>
       <r>   2.3946  1.0000</r>
       <r>   2.3966  1.0000</r>
       <r>   2.3967  1.0000</r>
       <r>   2.3967  1.0000</r>
       <r>   2.3967  1.0000</r>
       <r>   2.3967  1.0000</r>
       <r>   2.3969  1.0000</r>
       <r>   2.3988  1.0000</r>
       <r>   2.3988  1.0000</r>
       <r>   2.4033  1.0000</r>
       <r>   4.5014  1.0000</r>
       <r>   4.5014  1.0000</r>
       <r>   4.5014  1.0000</r>
       <r>   4.5014  1.0000</r>
       <r>   5.1326  1.0000</r>
       <r>   5.1326  1.0000</r>
       <r>   5.1326  1.0000</r>
       <r>   5.1326  1.0000</r>
       <r>   6.4351  1.0000</r>
       <r>   6.4351  1.0000</r>
       <r>   6.4352  1.0000</r>
       <r>   8.0619  1.0000</r>
       <r>   8.0620  1.0000</r>
       <r>   8.0620  1.0000</r>
       <r>   8.6882  1.0000</r>
       <r>   8.6882  1.0000</r>
       <r>   8.6930  1.0000</r>
       <r>   8.6930  1.0000</r>
       <r>   8.6932  1.0000</r>
       <r>   8.6932  1.0000</r>
       <r>   8.6932  1.0000</r>
       <r>   8.6933  1.0000</r>
       <r>   8.6934  1.0000</r>
       <r>   8.6934  1.0000</r>
       <r>   8.6982  1.0000</r>
       <r>   8.6982  1.0000</r>
       <r>   9.6047  1.0000</r>
       <r>   9.6094  1.0000</r>
       <r>   9.6094  1.0000</r>
       <r>   9.6094  1.0000</r>
       <r>   9.6094  1.0000</r>
       <r>   9.6140  1.0000</r>
       <r>  10.9631  0.0000</r>
       <r>  10.9631  0.0000</r>
       <r>  10.9643  0.0000</r>
       <r>  10.9673  0.0000</r>
       <r>  10.9674  0.0000</r>
       <r>  10.9674  0.0000</r>
       <r>  10.9674  0.0000</r>
       <r>  10.9675  0.0000</r>
       <r>  10.9676  0.0000</r>
       <r>  10.9705  0.0000</r>
       <r>  10.9718  0.0000</r>
       <r>  10.9718  0.0000</r>
       <r>  11.7779  0.0000</r>
       <r>  11.7790  0.0000</r>
       <r>  11.7790  0.0000</r>
       <r>  11.7790  0.0000</r>
       <r>  11.7804  0.0000</r>
      </set>
      <set comment="kpoint 2">
       <r>  -2.5082  1.0000</r>
       <r>  -0.4320  1.0000</r>
       <r>  -0.0212  1.0000</r>
       <r>  -0.0212  1.0000</r>
       <r>  -0.0212  1.0000</r>
       <r>  -0.0212  1.0000</r>
       <r>   0.3881  1.0000</r>
       <r>   2.0114  1.0000</r>
       <r>   2.0114  1.0000</r>
       <r>   2.0114  1.0000</r>
       <r>   2.0114  1.0000</r>
       <r>   2.4134  1.0000</r>
       <r>   2.4134  1.0000</r>
       <r>   2.4134  1.0000</r>
       <r>   2.4134  1.0000</r>
       <r>   2.8138  1.0000</r>
       <r>   2.8138  1.0000</r>
       <r>   2.8138  1.0000</r>
       <r>   2.8139  1.0000</r>
       <r>   4.3255  1.0000</r>
       <r>   4.3255  1.0000</r>
       <r>   4.3255  1.0000</r>
       <r>   4.3255  1.0000</r>
       <r>   5.3402  1.0000</r>
       <r>   5.3402  1.0000</r>
       <r>   5.3403  1.0000</r>
       <r>   5.3403  1.0000</r>
       <r>   6.1311  1.0000</r>
       <r>   6.4508  1.0000</r>
       <r>   6.4508  1.0000</r>
       <r>   8.0778  1.0000</r>
       <r>   8.0778  1.0000</r>
       <r>   8.3317  1.0000</r>
       <r>   8.3317  1.0000</r>
       <r>   8.3749  1.0000</r>
       <r>   8.3750  1.0000</r>
       <r>   8.3750  1.0000</r>
       <r>   8.3750  1.0000</r>
       <r>   8.3952  1.0000</r>
       <r>   8.7090  1.0000</r>
       <r>   8.7090  1.0000</r>
       <r>   8.7090  1.0000</r>
       <r>   8.7090  1.0000</r>
       <r>   9.0864  1.0000</r>
       <r>   9.0864  1.0000</r>
       <r>   9.5526  1.0000</r>
       <r>   9.5526  1.0000</r>
       <r>   9.8552  0.0000</r>
       <r>   9.8552  0.0000</r>
       <r>   9.8552  0.0000</r>
       <r>   9.8552  0.0000</r>
       <r>  10.6036  0.0000</r>
       <r>  10.6036  0.0000</r>
       <r>  10.6036  0.0000</r>
       <r>  10.6036  0.0000</r>
       <r>  10.7202  0.0000</r>
       <r>  10.7202  0.0000</r>
       <r>  10.7202  0.0000</r>
       <r>  10.7202  0.0000</r>
       <r>  11.3630  0.0000</r>
       <r>  11.3630  0.0000</r>
       <r>  11.3630  0.0000</r>
       <r>  11.3630  0.0000</r>
       <r>  11.8648  0.0000</r>
       <r>  11.8662  0.0000</r>
       <r>  11.8971  0.0000</r>
       <r>  11.8971  0.0000</r>
       <r>  11.8971  0.0000</r>
      </set>
      <set comment="kpoint 3">
       <r>  -2.4558  1.0000</r>
       <r>  -0.7927  1.0000</r>
       <r>   0.0300  1.0000</r>
       <r>   0.0301  1.0000</r>
       <r>   0.0301  1.0000</r>
       <r>   0.0301  1.0000</r>
       <r>   0.8468  1.0000</r>
       <r>   1.6584  1.0000</r>
       <r>   1.6584  1.0000</r>
       <r>   1.6584  1.0000</r>
       <r>   1.6584  1.0000</r>
       <r>   2.4635  1.0000</r>
       <r>   2.4635  1.0000</r>
       <r>   2.4635  1.0000</r>
       <r>   2.4635  1.0000</r>
       <r>   3.2622  1.0000</r>
       <r>   3.2622  1.0000</r>
       <r>   3.2622  1.0000</r>
       <r>   3.2622  1.0000</r>
       <r>   4.0260  1.0000</r>
       <r>   4.0260  1.0000</r>
       <r>   4.0260  1.0000</r>
       <r>   4.0260  1.0000</r>
       <r>   5.5348  1.0000</r>
       <r>   5.7350  1.0000</r>
       <r>   5.7350  1.0000</r>
       <r>   5.7351  1.0000</r>
       <r>   5.7351  1.0000</r>
       <r>   6.4977  1.0000</r>
       <r>   6.4977  1.0000</r>
       <r>   7.7977  1.0000</r>
       <r>   7.7977  1.0000</r>
       <r>   7.7977  1.0000</r>
       <r>   7.7977  1.0000</r>
       <r>   8.0020  1.0000</r>
       <r>   8.0020  1.0000</r>
       <r>   8.1252  1.0000</r>
       <r>   8.1252  1.0000</r>
       <r>   8.7562  1.0000</r>
       <r>   8.7562  1.0000</r>
       <r>   8.7562  1.0000</r>
       <r>   8.7563  1.0000</r>
       <r>   9.0785  1.0000</r>
       <r>   9.4054  1.0000</r>
       <r>   9.4055  1.0000</r>
       <r>   9.5112  1.0000</r>
       <r>   9.5112  1.0000</r>
       <r>  10.1894  0.0000</r>
       <r>  10.1896  0.0000</r>
       <r>  10.1896  0.0000</r>
       <r>  10.1897  0.0000</r>
       <r>  10.2137  0.0000</r>
       <r>  10.2137  0.0000</r>
       <r>  10.2137  0.0000</r>
       <r>  10.2141  0.0000</r>
       <r>  10.2716  0.0000</r>
       <r>  10.2716  0.0000</r>
       <r>  10.2717  0.0000</r>
       <r>  10.2717  0.0000</r>
       <r>  11.7905  0.0000</r>
       <r>  11.7905  0.0000</r>
       <r>  11.7905  0.0000</r>
       <r>  11.7905  0.0000</r>
       <r>  12.0986  0.0000</r>
       <r>  12.0986  0.0000</r>
       <r>  12.2534  0.0000</r>
       <r>  12.2559  0.0000</r>
       <r>  12.2603  0.0000</r>
      </set>
      <set comment="kpoint 4">
       <r>  -2.3686  1.0000</r>
       <r>  -1.1200  1.0000</r>
       <r>   0.1154  1.0000</r>
       <r>   0.1154  1.0000</r>
       <r>   0.1154  1.0000</r>
       <r>   0.1154  1.0000</r>
       <r>   1.3349  1.0000</r>
       <r>   1.3380  1.0000</r>
       <r>   1.3380  1.0000</r>
       <r>   1.3380  1.0000</r>
       <r>   1.3402  1.0000</r>
       <r>   2.5469  1.0000</r>
       <r>   2.5469  1.0000</r>
       <r>   2.5469  1.0000</r>
       <r>   2.5469  1.0000</r>
       <r>   3.7277  1.0000</r>
       <r>   3.7282  1.0000</r>
       <r>   3.7282  1.0000</r>
       <r>   3.7284  1.0000</r>
       <r>   3.7412  1.0000</r>
       <r>   3.7414  1.0000</r>
       <r>   3.7414  1.0000</r>
       <r>   3.7419  1.0000</r>
       <r>   4.8828  1.0000</r>
       <r>   6.1911  1.0000</r>
       <r>   6.1911  1.0000</r>
       <r>   6.1911  1.0000</r>
       <r>   6.1911  1.0000</r>
       <r>   6.5759  1.0000</r>
       <r>   6.5759  1.0000</r>
       <r>   7.1750  1.0000</r>
       <r>   7.1750  1.0000</r>
       <r>   7.1750  1.0000</r>
       <r>   7.1750  1.0000</r>
       <r>   7.7038  1.0000</r>
       <r>   7.7038  1.0000</r>
       <r>   8.2036  1.0000</r>
       <r>   8.2036  1.0000</r>
       <r>   8.8350  1.0000</r>
       <r>   8.8350  1.0000</r>
       <r>   8.8351  1.0000</r>
       <r>   8.8351  1.0000</r>
       <r>   9.2110  1.0000</r>
       <r>   9.2110  1.0000</r>
       <r>   9.5816  1.0000</r>
       <r>   9.5816  1.0000</r>
       <r>   9.5816  1.0000</r>
       <r>   9.5816  1.0000</r>
       <r>   9.8757  0.0000</r>
       <r>   9.9665  0.0000</r>
       <r>   9.9665  0.0000</r>
       <r>   9.9714  0.0000</r>
       <r>   9.9714  0.0000</r>
       <r>   9.9727  0.0000</r>
       <r>   9.9727  0.0000</r>
       <r>  10.4989  0.0000</r>
       <r>  10.4989  0.0000</r>
       <r>  10.4989  0.0000</r>
       <r>  10.4989  0.0000</r>
       <r>  11.9510  0.0000</r>
       <r>  11.9510  0.0000</r>
       <r>  11.9510  0.0000</r>
       <r>  11.9510  0.0000</r>
       <r>  12.2497  0.0000</r>
       <r>  12.2497  0.0000</r>
       <r>  12.2497  0.0000</r>
       <r>  12.2498  0.0000</r>
       <r>  12.4364  0.0000</r>
      </set>
      <set comment="kpoint 5">
       <r>  -2.2467  1.0000</r>
       <r>  -1.4136  1.0000</r>
       <r>   0.2348  1.0000</r>
       <r>   0.2349  1.0000</r>
       <r>   0.2349  1.0000</r>
       <r>   0.2349  1.0000</r>
       <r>   1.0505  1.0000</r>
       <r>   1.0505  1.0000</r>
       <r>   1.0505  1.0000</r>
       <r>   1.0505  1.0000</r>
       <r>   1.8586  1.0000</r>
       <r>   2.6634  1.0000</r>
       <r>   2.6634  1.0000</r>
       <r>   2.6634  1.0000</r>
       <r>   2.6634  1.0000</r>
       <r>   3.4542  1.0000</r>
       <r>   3.4543  1.0000</r>
       <r>   3.4543  1.0000</r>
       <r>   3.4543  1.0000</r>
       <r>   4.2322  1.0000</r>
       <r>   4.2499  1.0000</r>
       <r>   4.2499  1.0000</r>
       <r>   4.2499  1.0000</r>
       <r>   4.2500  1.0000</r>
       <r>   6.5511  1.0000</r>
       <r>   6.5511  1.0000</r>
       <r>   6.5511  1.0000</r>
       <r>   6.5511  1.0000</r>
       <r>   6.6841  1.0000</r>
       <r>   6.6841  1.0000</r>
       <r>   6.6865  1.0000</r>
       <r>   6.6865  1.0000</r>
       <r>   6.6878  1.0000</r>
       <r>   6.6878  1.0000</r>
       <r>   7.4372  1.0000</r>
       <r>   7.4372  1.0000</r>
       <r>   8.3122  1.0000</r>
       <r>   8.3122  1.0000</r>
       <r>   8.9451  1.0000</r>
       <r>   8.9451  1.0000</r>
       <r>   8.9453  1.0000</r>
       <r>   8.9454  1.0000</r>
       <r>   8.9632  1.0000</r>
       <r>   8.9634  1.0000</r>
       <r>   8.9636  1.0000</r>
       <r>   8.9636  1.0000</r>
       <r>   9.0025  1.0000</r>
       <r>   9.0026  1.0000</r>
       <r>   9.7029  1.0000</r>
       <r>   9.7029  1.0000</r>
       <r>   9.7029  1.0000</r>
       <r>   9.7029  1.0000</r>
       <r>  10.4560  0.0000</r>
       <r>  10.4560  0.0000</r>
       <r>  10.7292  0.0000</r>
       <r>  10.7294  0.0000</r>
       <r>  10.7294  0.0000</r>
       <r>  10.7294  0.0000</r>
       <r>  10.7297  0.0000</r>
       <r>  11.6633  0.0000</r>
       <r>  11.6633  0.0000</r>
       <r>  11.6633  0.0000</r>
       <r>  11.6633  0.0000</r>
       <r>  12.7185  0.0000</r>
       <r>  12.7237  0.0000</r>
       <r>  12.7409  0.0000</r>
       <r>  12.7411  0.0000</r>
       <r>  12.7439  0.0000</r>
      </set>
      <set comment="kpoint 6">
       <r>  -2.0900  1.0000</r>
       <r>  -1.6733  1.0000</r>
       <r>   0.3882  1.0000</r>
       <r>   0.3882  1.0000</r>
       <r>   0.3882  1.0000</r>
       <r>   0.3882  1.0000</r>
       <r>   0.7962  1.0000</r>
       <r>   0.7962  1.0000</r>
       <r>   0.7962  1.0000</r>
       <r>   0.7963  1.0000</r>
       <r>   2.4104  1.0000</r>
       <r>   2.8128  1.0000</r>
       <r>   2.8129  1.0000</r>
       <r>   2.8129  1.0000</r>
       <r>   2.8129  1.0000</r>
       <r>   3.2091  1.0000</r>
       <r>   3.2091  1.0000</r>
       <r>   3.2091  1.0000</r>
       <r>   3.2091  1.0000</r>
       <r>   3.5996  1.0000</r>
       <r>   4.7874  1.0000</r>
       <r>   4.7874  1.0000</r>
       <r>   4.7874  1.0000</r>
       <r>   4.7874  1.0000</r>
       <r>   5.9410  1.0000</r>
       <r>   5.9410  1.0000</r>
       <r>   5.9410  1.0000</r>
       <r>   5.9411  1.0000</r>
       <r>   6.8262  1.0000</r>
       <r>   6.8262  1.0000</r>
       <r>   7.2018  1.0000</r>
       <r>   7.2018  1.0000</r>
       <r>   7.2148  1.0000</r>
       <r>   7.2148  1.0000</r>
       <r>   7.2151  1.0000</r>
       <r>   7.2151  1.0000</r>
       <r>   8.3573  1.0000</r>
       <r>   8.3573  1.0000</r>
       <r>   8.3573  1.0000</r>
       <r>   8.3573  1.0000</r>
       <r>   8.4495  1.0000</r>
       <r>   8.4495  1.0000</r>
       <r>   8.7997  1.0000</r>
       <r>   8.7997  1.0000</r>
       <r>   9.0873  1.0000</r>
       <r>   9.0873  1.0000</r>
       <r>   9.0874  1.0000</r>
       <r>   9.0874  1.0000</r>
       <r>   9.4660  1.0000</r>
       <r>   9.4661  1.0000</r>
       <r>   9.4661  1.0000</r>
       <r>   9.4661  1.0000</r>
       <r>  10.9433  0.0000</r>
       <r>  10.9433  0.0000</r>
       <r>  10.9433  0.0000</r>
       <r>  10.9433  0.0000</r>
       <r>  10.9757  0.0000</r>
       <r>  10.9757  0.0000</r>
       <r>  11.4017  0.0000</r>
       <r>  11.4017  0.0000</r>
       <r>  11.4017  0.0000</r>
       <r>  11.4017  0.0000</r>
       <r>  11.6233  0.0000</r>
       <r>  12.1079  0.0000</r>
       <r>  12.1079  0.0000</r>
       <r>  13.2636  0.0000</r>
       <r>  13.2641  0.0000</r>
       <r>  13.2814  0.0000</r>
      </set>
      <set comment="kpoint 7">
       <r>  -1.9004  1.0000</r>
       <r>  -1.8973  1.0000</r>
       <r>   0.5711  1.0000</r>
       <r>   0.5744  1.0000</r>
       <r>   0.5744  1.0000</r>
       <r>   0.5753  1.0000</r>
       <r>   0.5755  1.0000</r>
       <r>   0.5764  1.0000</r>
       <r>   0.5764  1.0000</r>
       <r>   0.5797  1.0000</r>
       <r>   2.9881  1.0000</r>
       <r>   2.9913  1.0000</r>
       <r>   2.9936  1.0000</r>
       <r>   2.9936  1.0000</r>
       <r>   2.9938  1.0000</r>
       <r>   2.9944  1.0000</r>
       <r>   2.9955  1.0000</r>
       <r>   2.9963  1.0000</r>
       <r>   2.9963  1.0000</r>
       <r>   2.9993  1.0000</r>
       <r>   5.3509  1.0000</r>
       <r>   5.3509  1.0000</r>
       <r>   5.3516  1.0000</r>
       <r>   5.3518  1.0000</r>
       <r>   5.3519  1.0000</r>
       <r>   5.3521  1.0000</r>
       <r>   5.3528  1.0000</r>
       <r>   5.3528  1.0000</r>
       <r>   6.9967  1.0000</r>
       <r>   6.9967  1.0000</r>
       <r>   7.0001  1.0000</r>
       <r>   7.0001  1.0000</r>
       <r>   7.7719  1.0000</r>
       <r>   7.7719  1.0000</r>
       <r>   7.7721  1.0000</r>
       <r>   7.7728  1.0000</r>
       <r>   7.7730  1.0000</r>
       <r>   7.7736  1.0000</r>
       <r>   7.7738  1.0000</r>
       <r>   7.7738  1.0000</r>
       <r>   8.6110  1.0000</r>
       <r>   8.6124  1.0000</r>
       <r>   8.6141  1.0000</r>
       <r>   8.6155  1.0000</r>
       <r>   9.2583  1.0000</r>
       <r>   9.2583  1.0000</r>
       <r>   9.2591  1.0000</r>
       <r>   9.2608  1.0000</r>
       <r>   9.2610  1.0000</r>
       <r>   9.2626  1.0000</r>
       <r>   9.2635  1.0000</r>
       <r>   9.2635  1.0000</r>
       <r>  11.1611  0.0000</r>
       <r>  11.1621  0.0000</r>
       <r>  11.1621  0.0000</r>
       <r>  11.1622  0.0000</r>
       <r>  11.1649  0.0000</r>
       <r>  11.1650  0.0000</r>
       <r>  11.1650  0.0000</r>
       <r>  11.1660  0.0000</r>
       <r>  11.5254  0.0000</r>
       <r>  11.5254  0.0000</r>
       <r>  11.5277  0.0000</r>
       <r>  11.5277  0.0000</r>
       <r>  12.5501  0.0000</r>
       <r>  12.5508  0.0000</r>
       <r>  13.7863  0.0000</r>
       <r>  13.7928  0.0000</r>
      </set>
      <set comment="kpoint 8">
       <r>  -2.5082  1.0000</r>
       <r>  -0.4320  1.0000</r>
       <r>  -0.0243  1.0000</r>
       <r>  -0.0212  1.0000</r>
       <r>  -0.0212  1.0000</r>
       <r>  -0.0181  1.0000</r>
       <r>   0.3881  1.0000</r>
       <r>   2.0083  1.0000</r>
       <r>   2.0114  1.0000</r>
       <r>   2.0114  1.0000</r>
       <r>   2.0146  1.0000</r>
       <r>   2.4113  1.0000</r>
       <r>   2.4121  1.0000</r>
       <r>   2.4147  1.0000</r>
       <r>   2.4156  1.0000</r>
       <r>   2.8107  1.0000</r>
       <r>   2.8138  1.0000</r>
       <r>   2.8138  1.0000</r>
       <r>   2.8170  1.0000</r>
       <r>   4.3238  1.0000</r>
       <r>   4.3245  1.0000</r>
       <r>   4.3266  1.0000</r>
       <r>   4.3273  1.0000</r>
       <r>   5.3385  1.0000</r>
       <r>   5.3392  1.0000</r>
       <r>   5.3413  1.0000</r>
       <r>   5.3420  1.0000</r>
       <r>   6.1311  1.0000</r>
       <r>   6.4508  1.0000</r>
       <r>   6.4508  1.0000</r>
       <r>   8.0778  1.0000</r>
       <r>   8.0778  1.0000</r>
       <r>   8.3316  1.0000</r>
       <r>   8.3317  1.0000</r>
       <r>   8.3715  1.0000</r>
       <r>   8.3750  1.0000</r>
       <r>   8.3750  1.0000</r>
       <r>   8.3787  1.0000</r>
       <r>   8.3951  1.0000</r>
       <r>   8.7060  1.0000</r>
       <r>   8.7090  1.0000</r>
       <r>   8.7090  1.0000</r>
       <r>   8.7120  1.0000</r>
       <r>   9.0864  1.0000</r>
       <r>   9.0864  1.0000</r>
       <r>   9.5526  1.0000</r>
       <r>   9.5526  1.0000</r>
       <r>   9.8520  0.0000</r>
       <r>   9.8552  0.0000</r>
       <r>   9.8552  0.0000</r>
       <r>   9.8585  0.0000</r>
       <r>  10.6005  0.0000</r>
       <r>  10.6036  0.0000</r>
       <r>  10.6036  0.0000</r>
       <r>  10.6067  0.0000</r>
       <r>  10.7173  0.0000</r>
       <r>  10.7188  0.0000</r>
       <r>  10.7215  0.0000</r>
       <r>  10.7231  0.0000</r>
       <r>  11.3599  0.0000</r>
       <r>  11.3630  0.0000</r>
       <r>  11.3631  0.0000</r>
       <r>  11.3661  0.0000</r>
       <r>  11.8647  0.0000</r>
       <r>  11.8649  0.0000</r>
       <r>  11.8961  0.0000</r>
       <r>  11.8971  0.0000</r>
       <r>  11.8980  0.0000</r>
      </set>
      <set comment="kpoint 9">
       <r>  -2.4907  1.0000</r>
       <r>  -0.4162  1.0000</r>
       <r>  -0.4136  1.0000</r>
       <r>  -0.0041  1.0000</r>
       <r>  -0.0041  1.0000</r>
       <r>   0.4038  1.0000</r>
       <r>   0.4065  1.0000</r>
       <r>   1.6248  1.0000</r>
       <r>   2.0264  1.0000</r>
       <r>   2.0274  1.0000</r>
       <r>   2.0290  1.0000</r>
       <r>   2.0300  1.0000</r>
       <r>   2.4297  1.0000</r>
       <r>   2.4305  1.0000</r>
       <r>   2.8286  1.0000</r>
       <r>   2.8296  1.0000</r>
       <r>   2.8313  1.0000</r>
       <r>   2.8323  1.0000</r>
       <r>   3.2292  1.0000</r>
       <r>   3.9933  1.0000</r>
       <r>   3.9933  1.0000</r>
       <r>   4.5333  1.0000</r>
       <r>   4.5333  1.0000</r>
       <r>   5.1662  1.0000</r>
       <r>   5.1662  1.0000</r>
       <r>   5.7024  1.0000</r>
       <r>   5.7024  1.0000</r>
       <r>   6.1466  1.0000</r>
       <r>   6.1472  1.0000</r>
       <r>   6.4664  1.0000</r>
       <r>   8.0251  1.0000</r>
       <r>   8.0275  1.0000</r>
       <r>   8.0936  1.0000</r>
       <r>   8.2834  1.0000</r>
       <r>   8.2834  1.0000</r>
       <r>   8.3460  1.0000</r>
       <r>   8.3490  1.0000</r>
       <r>   8.4103  1.0000</r>
       <r>   8.4110  1.0000</r>
       <r>   8.5288  1.0000</r>
       <r>   8.5288  1.0000</r>
       <r>   8.7344  1.0000</r>
       <r>   8.7367  1.0000</r>
       <r>   9.1006  1.0000</r>
       <r>   9.1037  1.0000</r>
       <r>   9.7855  0.0000</r>
       <r>   9.7881  0.0000</r>
       <r>   9.8262  0.0000</r>
       <r>   9.8293  0.0000</r>
       <r>  10.0844  0.0000</r>
       <r>  10.0844  0.0000</r>
       <r>  10.2401  0.0000</r>
       <r>  10.3533  0.0000</r>
       <r>  10.3543  0.0000</r>
       <r>  10.3559  0.0000</r>
       <r>  10.3568  0.0000</r>
       <r>  10.9980  0.0000</r>
       <r>  10.9998  0.0000</r>
       <r>  11.1155  0.0000</r>
       <r>  11.1164  0.0000</r>
       <r>  11.1173  0.0000</r>
       <r>  11.1182  0.0000</r>
       <r>  11.7590  0.0000</r>
       <r>  11.9404  0.0000</r>
       <r>  11.9416  0.0000</r>
       <r>  12.0011  0.0000</r>
       <r>  12.0021  0.0000</r>
       <r>  12.0264  0.0000</r>
      </set>
      <set comment="kpoint 10">
       <r>  -2.4384  1.0000</r>
       <r>  -0.7755  1.0000</r>
       <r>  -0.3634  1.0000</r>
       <r>   0.0471  1.0000</r>
       <r>   0.0471  1.0000</r>
       <r>   0.4562  1.0000</r>
       <r>   0.8637  1.0000</r>
       <r>   1.2705  1.0000</r>
       <r>   1.6752  1.0000</r>
       <r>   1.6752  1.0000</r>
       <r>   2.0778  1.0000</r>
       <r>   2.0785  1.0000</r>
       <r>   2.0792  1.0000</r>
       <r>   2.8795  1.0000</r>
       <r>   2.8802  1.0000</r>
       <r>   2.8809  1.0000</r>
       <r>   3.2787  1.0000</r>
       <r>   3.2787  1.0000</r>
       <r>   3.6626  1.0000</r>
       <r>   3.6626  1.0000</r>
       <r>   3.6756  1.0000</r>
       <r>   4.3901  1.0000</r>
       <r>   4.3901  1.0000</r>
       <r>   5.4064  1.0000</r>
       <r>   5.4064  1.0000</r>
       <r>   5.5508  1.0000</r>
       <r>   6.1264  1.0000</r>
       <r>   6.1264  1.0000</r>
       <r>   6.1943  1.0000</r>
       <r>   6.5133  1.0000</r>
       <r>   7.4473  1.0000</r>
       <r>   7.7020  1.0000</r>
       <r>   7.7906  1.0000</r>
       <r>   7.7906  1.0000</r>
       <r>   8.0177  1.0000</r>
       <r>   8.1407  1.0000</r>
       <r>   8.1652  1.0000</r>
       <r>   8.3947  1.0000</r>
       <r>   8.4574  1.0000</r>
       <r>   8.5099  1.0000</r>
       <r>   8.5099  1.0000</r>
       <r>   9.0498  1.0000</r>
       <r>   9.0937  1.0000</r>
       <r>   9.1495  1.0000</r>
       <r>   9.5270  1.0000</r>
       <r>   9.7027  1.0000</r>
       <r>   9.7172  1.0000</r>
       <r>   9.8228  0.0000</r>
       <r>   9.8228  0.0000</r>
       <r>   9.9085  0.0000</r>
       <r>  10.0216  0.0000</r>
       <r>  10.0216  0.0000</r>
       <r>  10.0490  0.0000</r>
       <r>  10.2967  0.0000</r>
       <r>  10.4559  0.0000</r>
       <r>  10.4559  0.0000</r>
       <r>  10.5881  0.0000</r>
       <r>  10.5881  0.0000</r>
       <r>  10.6666  0.0000</r>
       <r>  11.4260  0.0000</r>
       <r>  11.5450  0.0000</r>
       <r>  11.5450  0.0000</r>
       <r>  11.8987  0.0000</r>
       <r>  12.1469  0.0000</r>
       <r>  12.1868  0.0000</r>
       <r>  12.1878  0.0000</r>
       <r>  12.2997  0.0000</r>
       <r>  12.3255  0.0000</r>
      </set>
      <set comment="kpoint 11">
       <r>  -2.3512  1.0000</r>
       <r>  -1.1028  1.0000</r>
       <r>  -0.2778  1.0000</r>
       <r>   0.1325  1.0000</r>
       <r>   0.1325  1.0000</r>
       <r>   0.5413  1.0000</r>
       <r>   0.9489  1.0000</r>
       <r>   1.3525  1.0000</r>
       <r>   1.3549  1.0000</r>
       <r>   1.3564  1.0000</r>
       <r>   1.7593  1.0000</r>
       <r>   2.1623  1.0000</r>
       <r>   2.1623  1.0000</r>
       <r>   2.9631  1.0000</r>
       <r>   2.9631  1.0000</r>
       <r>   3.3546  1.0000</r>
       <r>   3.3551  1.0000</r>
       <r>   3.3617  1.0000</r>
       <r>   3.7575  1.0000</r>
       <r>   3.7575  1.0000</r>
       <r>   4.1238  1.0000</r>
       <r>   4.1239  1.0000</r>
       <r>   4.1524  1.0000</r>
       <r>   4.8990  1.0000</r>
       <r>   5.8329  1.0000</r>
       <r>   5.8329  1.0000</r>
       <r>   6.2733  1.0000</r>
       <r>   6.5896  1.0000</r>
       <r>   6.5905  1.0000</r>
       <r>   6.5923  1.0000</r>
       <r>   6.8179  1.0000</r>
       <r>   7.1823  1.0000</r>
       <r>   7.1823  1.0000</r>
       <r>   7.4059  1.0000</r>
       <r>   7.5548  1.0000</r>
       <r>   7.7195  1.0000</r>
       <r>   8.2186  1.0000</r>
       <r>   8.4734  1.0000</r>
       <r>   8.5347  1.0000</r>
       <r>   8.5807  1.0000</r>
       <r>   8.5807  1.0000</r>
       <r>   9.1238  1.0000</r>
       <r>   9.2132  1.0000</r>
       <r>   9.2133  1.0000</r>
       <r>   9.2284  1.0000</r>
       <r>   9.5209  1.0000</r>
       <r>   9.6085  1.0000</r>
       <r>   9.7199  1.0000</r>
       <r>   9.7199  1.0000</r>
       <r>   9.8845  0.0000</r>
       <r>   9.8904  0.0000</r>
       <r>   9.9812  0.0000</r>
       <r>   9.9814  0.0000</r>
       <r>   9.9839  0.0000</r>
       <r>  10.2501  0.0000</r>
       <r>  10.3661  0.0000</r>
       <r>  10.7058  0.0000</r>
       <r>  10.7616  0.0000</r>
       <r>  10.7616  0.0000</r>
       <r>  11.5862  0.0000</r>
       <r>  11.8850  0.0000</r>
       <r>  12.0044  0.0000</r>
       <r>  12.0044  0.0000</r>
       <r>  12.2309  0.0000</r>
       <r>  12.2309  0.0000</r>
       <r>  12.3422  0.0000</r>
       <r>  12.4703  0.0000</r>
       <r>  12.6418  0.0000</r>
      </set>
      <set comment="kpoint 12">
       <r>  -2.2293  1.0000</r>
       <r>  -1.3964  1.0000</r>
       <r>  -0.1579  1.0000</r>
       <r>   0.2519  1.0000</r>
       <r>   0.2519  1.0000</r>
       <r>   0.6597  1.0000</r>
       <r>   0.6610  1.0000</r>
       <r>   1.0674  1.0000</r>
       <r>   1.0674  1.0000</r>
       <r>   1.4729  1.0000</r>
       <r>   1.8754  1.0000</r>
       <r>   2.2794  1.0000</r>
       <r>   2.2794  1.0000</r>
       <r>   3.0761  1.0000</r>
       <r>   3.0764  1.0000</r>
       <r>   3.0789  1.0000</r>
       <r>   3.0792  1.0000</r>
       <r>   3.8598  1.0000</r>
       <r>   3.8598  1.0000</r>
       <r>   3.8722  1.0000</r>
       <r>   4.2486  1.0000</r>
       <r>   4.2660  1.0000</r>
       <r>   4.2661  1.0000</r>
       <r>   4.6583  1.0000</r>
       <r>   6.1879  1.0000</r>
       <r>   6.3200  1.0000</r>
       <r>   6.3201  1.0000</r>
       <r>   6.3840  1.0000</r>
       <r>   6.5632  1.0000</r>
       <r>   6.5632  1.0000</r>
       <r>   6.7010  1.0000</r>
       <r>   6.9403  1.0000</r>
       <r>   7.0885  1.0000</r>
       <r>   7.0885  1.0000</r>
       <r>   7.1397  1.0000</r>
       <r>   7.4529  1.0000</r>
       <r>   8.3262  1.0000</r>
       <r>   8.5834  1.0000</r>
       <r>   8.5939  1.0000</r>
       <r>   8.5942  1.0000</r>
       <r>   8.6417  1.0000</r>
       <r>   8.6894  1.0000</r>
       <r>   8.6894  1.0000</r>
       <r>   8.9843  1.0000</r>
       <r>   9.3195  1.0000</r>
       <r>   9.3384  1.0000</r>
       <r>   9.3406  1.0000</r>
       <r>   9.3643  1.0000</r>
       <r>   9.3645  1.0000</r>
       <r>   9.4499  1.0000</r>
       <r>   9.4499  1.0000</r>
       <r>  10.0972  0.0000</r>
       <r>  10.2909  0.0000</r>
       <r>  10.4299  0.0000</r>
       <r>  10.4719  0.0000</r>
       <r>  10.7436  0.0000</r>
       <r>  11.0040  0.0000</r>
       <r>  11.0040  0.0000</r>
       <r>  11.0207  0.0000</r>
       <r>  11.3024  0.0000</r>
       <r>  11.9443  0.0000</r>
       <r>  11.9443  0.0000</r>
       <r>  12.0495  0.0000</r>
       <r>  12.3757  0.0000</r>
       <r>  12.4911  0.0000</r>
       <r>  12.4950  0.0000</r>
       <r>  12.4953  0.0000</r>
       <r>  12.7346  0.0000</r>
      </set>
      <set comment="kpoint 13">
       <r>  -2.0726  1.0000</r>
       <r>  -1.6560  1.0000</r>
       <r>  -0.0041  1.0000</r>
       <r>   0.4038  1.0000</r>
       <r>   0.4053  1.0000</r>
       <r>   0.4068  1.0000</r>
       <r>   0.8116  1.0000</r>
       <r>   0.8132  1.0000</r>
       <r>   0.8146  1.0000</r>
       <r>   1.2196  1.0000</r>
       <r>   2.4264  1.0000</r>
       <r>   2.4297  1.0000</r>
       <r>   2.4303  1.0000</r>
       <r>   2.8287  1.0000</r>
       <r>   2.8287  1.0000</r>
       <r>   3.2272  1.0000</r>
       <r>   3.2272  1.0000</r>
       <r>   3.6155  1.0000</r>
       <r>   3.6192  1.0000</r>
       <r>   3.6198  1.0000</r>
       <r>   4.4123  1.0000</r>
       <r>   4.8031  1.0000</r>
       <r>   4.8031  1.0000</r>
       <r>   5.1925  1.0000</r>
       <r>   5.5730  1.0000</r>
       <r>   5.9552  1.0000</r>
       <r>   5.9552  1.0000</r>
       <r>   6.3372  1.0000</r>
       <r>   6.5259  1.0000</r>
       <r>   6.8415  1.0000</r>
       <r>   6.8456  1.0000</r>
       <r>   6.8460  1.0000</r>
       <r>   6.9041  1.0000</r>
       <r>   7.2177  1.0000</r>
       <r>   7.6176  1.0000</r>
       <r>   7.6176  1.0000</r>
       <r>   7.9873  1.0000</r>
       <r>   7.9873  1.0000</r>
       <r>   8.4617  1.0000</r>
       <r>   8.7254  1.0000</r>
       <r>   8.7591  1.0000</r>
       <r>   8.7593  1.0000</r>
       <r>   8.7770  1.0000</r>
       <r>   8.8011  1.0000</r>
       <r>   8.8312  1.0000</r>
       <r>   8.8313  1.0000</r>
       <r>   9.1037  1.0000</r>
       <r>   9.1213  1.0000</r>
       <r>   9.2118  1.0000</r>
       <r>   9.2118  1.0000</r>
       <r>   9.4810  1.0000</r>
       <r>   9.8602  0.0000</r>
       <r>  10.6151  0.0000</r>
       <r>  10.7825  0.0000</r>
       <r>  10.9916  0.0000</r>
       <r>  11.0470  0.0000</r>
       <r>  11.2231  0.0000</r>
       <r>  11.2231  0.0000</r>
       <r>  11.2815  0.0000</r>
       <r>  11.6364  0.0000</r>
       <r>  11.6834  0.0000</r>
       <r>  11.6835  0.0000</r>
       <r>  11.7796  0.0000</r>
       <r>  11.8907  0.0000</r>
       <r>  12.1238  0.0000</r>
       <r>  12.8982  0.0000</r>
       <r>  13.0162  0.0000</r>
       <r>  13.0162  0.0000</r>
      </set>
      <set comment="kpoint 14">
       <r>  -1.8831  1.0000</r>
       <r>  -1.8799  1.0000</r>
       <r>   0.1822  1.0000</r>
       <r>   0.1853  1.0000</r>
       <r>   0.5902  1.0000</r>
       <r>   0.5915  1.0000</r>
       <r>   0.5934  1.0000</r>
       <r>   0.5946  1.0000</r>
       <r>   0.9980  1.0000</r>
       <r>   1.0011  1.0000</r>
       <r>   2.6106  1.0000</r>
       <r>   2.6120  1.0000</r>
       <r>   2.6139  1.0000</r>
       <r>   2.6151  1.0000</r>
       <r>   3.0073  1.0000</r>
       <r>   3.0084  1.0000</r>
       <r>   3.4054  1.0000</r>
       <r>   3.4067  1.0000</r>
       <r>   3.4086  1.0000</r>
       <r>   3.4100  1.0000</r>
       <r>   4.9794  1.0000</r>
       <r>   4.9805  1.0000</r>
       <r>   5.3661  1.0000</r>
       <r>   5.3669  1.0000</r>
       <r>   5.3672  1.0000</r>
       <r>   5.3680  1.0000</r>
       <r>   5.7525  1.0000</r>
       <r>   5.7536  1.0000</r>
       <r>   6.6977  1.0000</r>
       <r>   6.7011  1.0000</r>
       <r>   7.0124  1.0000</r>
       <r>   7.0158  1.0000</r>
       <r>   7.4020  1.0000</r>
       <r>   7.4024  1.0000</r>
       <r>   7.4033  1.0000</r>
       <r>   7.4036  1.0000</r>
       <r>   8.1747  1.0000</r>
       <r>   8.1751  1.0000</r>
       <r>   8.1759  1.0000</r>
       <r>   8.1764  1.0000</r>
       <r>   8.6205  1.0000</r>
       <r>   8.6236  1.0000</r>
       <r>   8.8970  1.0000</r>
       <r>   8.9005  1.0000</r>
       <r>   8.9365  1.0000</r>
       <r>   8.9397  1.0000</r>
       <r>   9.0030  1.0000</r>
       <r>   9.0045  1.0000</r>
       <r>   9.0065  1.0000</r>
       <r>   9.0080  1.0000</r>
       <r>   9.6530  1.0000</r>
       <r>   9.6565  1.0000</r>
       <r>  10.8172  0.0000</r>
       <r>  10.8205  0.0000</r>
       <r>  11.3182  0.0000</r>
       <r>  11.3202  0.0000</r>
       <r>  11.4431  0.0000</r>
       <r>  11.4437  0.0000</r>
       <r>  11.4466  0.0000</r>
       <r>  11.4472  0.0000</r>
       <r>  11.5254  0.0000</r>
       <r>  11.5289  0.0000</r>
       <r>  11.5413  0.0000</r>
       <r>  11.5436  0.0000</r>
       <r>  12.5620  0.0000</r>
       <r>  12.5627  0.0000</r>
       <r>  13.4513  0.0000</r>
       <r>  13.4682  0.0000</r>
      </set>
      <set comment="kpoint 15">
       <r>  -2.4558  1.0000</r>
       <r>  -0.7927  1.0000</r>
       <r>   0.0269  1.0000</r>
       <r>   0.0301  1.0000</r>
       <r>   0.0301  1.0000</r>
       <r>   0.0332  1.0000</r>
       <r>   0.8468  1.0000</r>
       <r>   1.6552  1.0000</r>
       <r>   1.6584  1.0000</r>
       <r>   1.6584  1.0000</r>
       <r>   1.6615  1.0000</r>
       <r>   2.4614  1.0000</r>
       <r>   2.4622  1.0000</r>
       <r>   2.4648  1.0000</r>
       <r>   2.4657  1.0000</r>
       <r>   3.2590  1.0000</r>
       <r>   3.2622  1.0000</r>
       <r>   3.2622  1.0000</r>
       <r>   3.2654  1.0000</r>
       <r>   4.0239  1.0000</r>
       <r>   4.0247  1.0000</r>
       <r>   4.0272  1.0000</r>
       <r>   4.0280  1.0000</r>
       <r>   5.5348  1.0000</r>
       <r>   5.7330  1.0000</r>
       <r>   5.7338  1.0000</r>
       <r>   5.7363  1.0000</r>
       <r>   5.7371  1.0000</r>
       <r>   6.4977  1.0000</r>
       <r>   6.4977  1.0000</r>
       <r>   7.7942  1.0000</r>
       <r>   7.7977  1.0000</r>
       <r>   7.7977  1.0000</r>
       <r>   7.8012  1.0000</r>
       <r>   8.0019  1.0000</r>
       <r>   8.0020  1.0000</r>
       <r>   8.1252  1.0000</r>
       <r>   8.1252  1.0000</r>
       <r>   8.7533  1.0000</r>
       <r>   8.7562  1.0000</r>
       <r>   8.7563  1.0000</r>
       <r>   8.7592  1.0000</r>
       <r>   9.0785  1.0000</r>
       <r>   9.4054  1.0000</r>
       <r>   9.4055  1.0000</r>
       <r>   9.5112  1.0000</r>
       <r>   9.5113  1.0000</r>
       <r>  10.1870  0.0000</r>
       <r>  10.1883  0.0000</r>
       <r>  10.1911  0.0000</r>
       <r>  10.1924  0.0000</r>
       <r>  10.2106  0.0000</r>
       <r>  10.2137  0.0000</r>
       <r>  10.2137  0.0000</r>
       <r>  10.2168  0.0000</r>
       <r>  10.2686  0.0000</r>
       <r>  10.2716  0.0000</r>
       <r>  10.2717  0.0000</r>
       <r>  10.2747  0.0000</r>
       <r>  11.7873  0.0000</r>
       <r>  11.7905  0.0000</r>
       <r>  11.7905  0.0000</r>
       <r>  11.7936  0.0000</r>
       <r>  12.0986  0.0000</r>
       <r>  12.0986  0.0000</r>
       <r>  12.2527  0.0000</r>
       <r>  12.2572  0.0000</r>
       <r>  12.2651  0.0000</r>
      </set>
      <set comment="kpoint 16">
       <r>  -2.4384  1.0000</r>
       <r>  -0.7755  1.0000</r>
       <r>  -0.3634  1.0000</r>
       <r>   0.0471  1.0000</r>
       <r>   0.0471  1.0000</r>
       <r>   0.4562  1.0000</r>
       <r>   0.8637  1.0000</r>
       <r>   1.2705  1.0000</r>
       <r>   1.6752  1.0000</r>
       <r>   1.6752  1.0000</r>
       <r>   2.0771  1.0000</r>
       <r>   2.0785  1.0000</r>
       <r>   2.0799  1.0000</r>
       <r>   2.8788  1.0000</r>
       <r>   2.8802  1.0000</r>
       <r>   2.8816  1.0000</r>
       <r>   3.2787  1.0000</r>
       <r>   3.2787  1.0000</r>
       <r>   3.6626  1.0000</r>
       <r>   3.6626  1.0000</r>
       <r>   3.6756  1.0000</r>
       <r>   4.3901  1.0000</r>
       <r>   4.3901  1.0000</r>
       <r>   5.4064  1.0000</r>
       <r>   5.4064  1.0000</r>
       <r>   5.5508  1.0000</r>
       <r>   6.1264  1.0000</r>
       <r>   6.1264  1.0000</r>
       <r>   6.1944  1.0000</r>
       <r>   6.5133  1.0000</r>
       <r>   7.4473  1.0000</r>
       <r>   7.7020  1.0000</r>
       <r>   7.7906  1.0000</r>
       <r>   7.7906  1.0000</r>
       <r>   8.0177  1.0000</r>
       <r>   8.1407  1.0000</r>
       <r>   8.1652  1.0000</r>
       <r>   8.3947  1.0000</r>
       <r>   8.4573  1.0000</r>
       <r>   8.5100  1.0000</r>
       <r>   8.5100  1.0000</r>
       <r>   9.0498  1.0000</r>
       <r>   9.0938  1.0000</r>
       <r>   9.1495  1.0000</r>
       <r>   9.5270  1.0000</r>
       <r>   9.7027  1.0000</r>
       <r>   9.7172  1.0000</r>
       <r>   9.8228  0.0000</r>
       <r>   9.8228  0.0000</r>
       <r>   9.9084  0.0000</r>
       <r>  10.0216  0.0000</r>
       <r>  10.0216  0.0000</r>
       <r>  10.0490  0.0000</r>
       <r>  10.2967  0.0000</r>
       <r>  10.4559  0.0000</r>
       <r>  10.4559  0.0000</r>
       <r>  10.5881  0.0000</r>
       <r>  10.5881  0.0000</r>
       <r>  10.6666  0.0000</r>
       <r>  11.4260  0.0000</r>
       <r>  11.5450  0.0000</r>
       <r>  11.5450  0.0000</r>
       <r>  11.8987  0.0000</r>
       <r>  12.1469  0.0000</r>
       <r>  12.1868  0.0000</r>
       <r>  12.1878  0.0000</r>
       <r>  12.2943  0.0000</r>
       <r>  12.3255  0.0000</r>
      </set>
      <set comment="kpoint 17">
       <r>  -2.3861  1.0000</r>
       <r>  -0.7252  1.0000</r>
       <r>  -0.7226  1.0000</r>
       <r>   0.0984  1.0000</r>
       <r>   0.0984  1.0000</r>
       <r>   0.9127  1.0000</r>
       <r>   0.9148  1.0000</r>
       <r>   0.9167  1.0000</r>
       <r>   1.7239  1.0000</r>
       <r>   1.7249  1.0000</r>
       <r>   1.7265  1.0000</r>
       <r>   1.7275  1.0000</r>
       <r>   2.5297  1.0000</r>
       <r>   2.5305  1.0000</r>
       <r>   3.3215  1.0000</r>
       <r>   3.3219  1.0000</r>
       <r>   3.3266  1.0000</r>
       <r>   3.3274  1.0000</r>
       <r>   3.3290  1.0000</r>
       <r>   3.3302  1.0000</r>
       <r>   4.1196  1.0000</r>
       <r>   4.6289  1.0000</r>
       <r>   4.6289  1.0000</r>
       <r>   5.2666  1.0000</r>
       <r>   5.2666  1.0000</r>
       <r>   5.5986  1.0000</r>
       <r>   5.5993  1.0000</r>
       <r>   6.5578  1.0000</r>
       <r>   6.5584  1.0000</r>
       <r>   6.5609  1.0000</r>
       <r>   7.1202  1.0000</r>
       <r>   7.1228  1.0000</r>
       <r>   7.6649  1.0000</r>
       <r>   7.6649  1.0000</r>
       <r>   8.0633  1.0000</r>
       <r>   8.0663  1.0000</r>
       <r>   8.1357  1.0000</r>
       <r>   8.1358  1.0000</r>
       <r>   8.1869  1.0000</r>
       <r>   8.5270  1.0000</r>
       <r>   8.5294  1.0000</r>
       <r>   9.1387  1.0000</r>
       <r>   9.1397  1.0000</r>
       <r>   9.4856  1.0000</r>
       <r>   9.4867  1.0000</r>
       <r>   9.4883  1.0000</r>
       <r>   9.4894  1.0000</r>
       <r>   9.5724  1.0000</r>
       <r>   9.5752  1.0000</r>
       <r>   9.5783  1.0000</r>
       <r>   9.8736  0.0000</r>
       <r>   9.8754  0.0000</r>
       <r>  10.2596  0.0000</r>
       <r>  10.2626  0.0000</r>
       <r>  10.8984  0.0000</r>
       <r>  10.8985  0.0000</r>
       <r>  11.0163  0.0000</r>
       <r>  11.0172  0.0000</r>
       <r>  11.0179  0.0000</r>
       <r>  11.0189  0.0000</r>
       <r>  11.0925  0.0000</r>
       <r>  11.0943  0.0000</r>
       <r>  11.5596  0.0000</r>
       <r>  12.3055  0.0000</r>
       <r>  12.3062  0.0000</r>
       <r>  12.5668  0.0000</r>
       <r>  12.5669  0.0000</r>
       <r>  12.6149  0.0000</r>
      </set>
      <set comment="kpoint 18">
       <r>  -2.2989  1.0000</r>
       <r>  -1.0510  1.0000</r>
       <r>  -0.6380  1.0000</r>
       <r>   0.1837  1.0000</r>
       <r>   0.1837  1.0000</r>
       <r>   0.5925  1.0000</r>
       <r>   0.9993  1.0000</r>
       <r>   1.4032  1.0000</r>
       <r>   1.4055  1.0000</r>
       <r>   1.4070  1.0000</r>
       <r>   1.8098  1.0000</r>
       <r>   1.8098  1.0000</r>
       <r>   2.2123  1.0000</r>
       <r>   3.0091  1.0000</r>
       <r>   3.0101  1.0000</r>
       <r>   3.0137  1.0000</r>
       <r>   3.4103  1.0000</r>
       <r>   3.4103  1.0000</r>
       <r>   3.8064  1.0000</r>
       <r>   3.8064  1.0000</r>
       <r>   4.5192  1.0000</r>
       <r>   4.5192  1.0000</r>
       <r>   4.5937  1.0000</r>
       <r>   4.9477  1.0000</r>
       <r>   5.5384  1.0000</r>
       <r>   5.5384  1.0000</r>
       <r>   5.6791  1.0000</r>
       <r>   6.4875  1.0000</r>
       <r>   6.6384  1.0000</r>
       <r>   6.8237  1.0000</r>
       <r>   7.0251  1.0000</r>
       <r>   7.0251  1.0000</r>
       <r>   7.1888  1.0000</r>
       <r>   7.1888  1.0000</r>
       <r>   7.7666  1.0000</r>
       <r>   7.9480  1.0000</r>
       <r>   8.0779  1.0000</r>
       <r>   8.0779  1.0000</r>
       <r>   8.1435  1.0000</r>
       <r>   8.2630  1.0000</r>
       <r>   8.8159  1.0000</r>
       <r>   8.8768  1.0000</r>
       <r>   8.8768  1.0000</r>
       <r>   9.1841  1.0000</r>
       <r>   9.1841  1.0000</r>
       <r>   9.2144  1.0000</r>
       <r>   9.2774  1.0000</r>
       <r>   9.6535  1.0000</r>
       <r>   9.7958  0.0000</r>
       <r>   9.9344  0.0000</r>
       <r>  10.0064  0.0000</r>
       <r>  10.0311  0.0000</r>
       <r>  10.1323  0.0000</r>
       <r>  10.4123  0.0000</r>
       <r>  10.4123  0.0000</r>
       <r>  10.7925  0.0000</r>
       <r>  10.8125  0.0000</r>
       <r>  11.2496  0.0000</r>
       <r>  11.2885  0.0000</r>
       <r>  11.2885  0.0000</r>
       <r>  11.4779  0.0000</r>
       <r>  11.4779  0.0000</r>
       <r>  11.5520  0.0000</r>
       <r>  12.5774  0.0000</r>
       <r>  12.6004  0.0000</r>
       <r>  12.6165  0.0000</r>
       <r>  12.7574  0.0000</r>
       <r>  12.8518  0.0000</r>
      </set>
      <set comment="kpoint 19">
       <r>  -2.1770  1.0000</r>
       <r>  -1.3445  1.0000</r>
       <r>  -0.5178  1.0000</r>
       <r>   0.3016  1.0000</r>
       <r>   0.3030  1.0000</r>
       <r>   0.3046  1.0000</r>
       <r>   1.1165  1.0000</r>
       <r>   1.1182  1.0000</r>
       <r>   1.1195  1.0000</r>
       <r>   1.9243  1.0000</r>
       <r>   1.9271  1.0000</r>
       <r>   1.9274  1.0000</r>
       <r>   1.9289  1.0000</r>
       <r>   2.7288  1.0000</r>
       <r>   2.7288  1.0000</r>
       <r>   3.5246  1.0000</r>
       <r>   3.5251  1.0000</r>
       <r>   3.5262  1.0000</r>
[...]
       <r>   3.6084  1.0000</r>
       <r>   3.9942  1.0000</r>
       <r>   3.9959  1.0000</r>
       <r>   3.9978  1.0000</r>
       <r>   3.9982  1.0000</r>
       <r>   3.9983  1.0000</r>
       <r>   3.9987  1.0000</r>
       <r>   4.0006  1.0000</r>
       <r>   4.0023  1.0000</r>
       <r>   4.3848  1.0000</r>
       <r>   4.3865  1.0000</r>
       <r>   4.3884  1.0000</r>
       <r>   4.3888  1.0000</r>
       <r>   4.3890  1.0000</r>
       <r>   4.3894  1.0000</r>
       <r>   4.3913  1.0000</r>
       <r>   4.3930  1.0000</r>
       <r>   4.7729  1.0000</r>
       <r>   4.7756  1.0000</r>
       <r>   4.7761  1.0000</r>
       <r>   4.7789  1.0000</r>
       <r>   8.3448  1.0000</r>
       <r>   8.3464  1.0000</r>
       <r>   8.3488  1.0000</r>
       <r>   8.3490  1.0000</r>
       <r>   8.3492  1.0000</r>
       <r>   8.3494  1.0000</r>
       <r>   8.3517  1.0000</r>
       <r>   8.3534  1.0000</r>
       <r>   8.7131  1.0000</r>
       <r>   8.7144  1.0000</r>
       <r>   8.7147  1.0000</r>
       <r>   8.7159  1.0000</r>
       <r>   9.1096  1.0000</r>
       <r>   9.1109  1.0000</r>
       <r>   9.1112  1.0000</r>
       <r>   9.1125  1.0000</r>
       <r>   9.4667  1.0000</r>
       <r>   9.4686  1.0000</r>
       <r>   9.4709  1.0000</r>
       <r>   9.4712  1.0000</r>
       <r>   9.4713  1.0000</r>
       <r>   9.4716  1.0000</r>
       <r>   9.4739  1.0000</r>
       <r>   9.4758  1.0000</r>
       <r>  12.8853  0.0000</r>
       <r>  12.8878  0.0000</r>
       <r>  12.8887  0.0000</r>
       <r>  12.8910  0.0000</r>
       <r>  12.9519  0.0000</r>
       <r>  12.9535  0.0000</r>
       <r>  12.9536  0.0000</r>
       <r>  12.9550  0.0000</r>
       <r>  13.6158  0.0000</r>
       <r>  13.6166  0.0000</r>
       <r>  13.6173  0.0000</r>
       <r>  13.6189  0.0000</r>
      </set>
      <set comment="kpoint 190">
       <r>  -1.2754  1.0000</r>
       <r>  -1.2754  1.0000</r>
       <r>  -1.2754  1.0000</r>
       <r>  -1.2754  1.0000</r>
       <r>   1.1806  1.0000</r>
       <r>   1.1851  1.0000</r>
       <r>   1.1851  1.0000</r>
       <r>   1.1858  1.0000</r>
       <r>   1.1860  1.0000</r>
       <r>   1.1866  1.0000</r>
       <r>   1.1866  1.0000</r>
       <r>   1.1912  1.0000</r>
       <r>   3.5877  1.0000</r>
       <r>   3.5877  1.0000</r>
       <r>   3.5877  1.0000</r>
       <r>   3.5877  1.0000</r>
       <r>   3.5877  1.0000</r>
       <r>   3.5877  1.0000</r>
       <r>   3.5877  1.0000</r>
       <r>   3.5877  1.0000</r>
       <r>   5.6466  1.0000</r>
       <r>   5.6466  1.0000</r>
       <r>   5.6482  1.0000</r>
       <r>   5.6483  1.0000</r>
       <r>   5.6483  1.0000</r>
       <r>   5.6483  1.0000</r>
       <r>   5.6499  1.0000</r>
       <r>   5.6499  1.0000</r>
       <r>   6.3110  1.0000</r>
       <r>   6.3110  1.0000</r>
       <r>   6.3131  1.0000</r>
       <r>   6.3131  1.0000</r>
       <r>   6.3131  1.0000</r>
       <r>   6.3131  1.0000</r>
       <r>   6.3151  1.0000</r>
       <r>   6.3151  1.0000</r>
       <r>   7.5629  1.0000</r>
       <r>   7.5629  1.0000</r>
       <r>   7.5629  1.0000</r>
       <r>   7.5629  1.0000</r>
       <r>   8.0578  1.0000</r>
       <r>   8.0578  1.0000</r>
       <r>   8.0579  1.0000</r>
       <r>   8.0579  1.0000</r>
       <r>   9.6332  1.0000</r>
       <r>   9.6332  1.0000</r>
       <r>   9.6332  1.0000</r>
       <r>   9.6332  1.0000</r>
       <r>  10.6454  0.0000</r>
       <r>  10.6454  0.0000</r>
       <r>  10.6455  0.0000</r>
       <r>  10.6472  0.0000</r>
       <r>  10.6485  0.0000</r>
       <r>  10.6502  0.0000</r>
       <r>  10.6503  0.0000</r>
       <r>  10.6503  0.0000</r>
       <r>  12.0996  0.0000</r>
       <r>  12.0996  0.0000</r>
       <r>  12.0996  0.0000</r>
       <r>  12.0996  0.0000</r>
       <r>  12.0996  0.0000</r>
       <r>  12.0996  0.0000</r>
       <r>  12.0996  0.0000</r>
       <r>  12.0997  0.0000</r>
       <r>  12.8167  0.0000</r>
       <r>  12.8167  0.0000</r>
       <r>  12.8167  0.0000</r>
       <r>  12.8167  0.0000</r>
      </set>
      <set comment="kpoint 191">
       <r>  -1.2581  1.0000</r>
       <r>  -1.2581  1.0000</r>
       <r>  -1.2581  1.0000</r>
       <r>  -1.2581  1.0000</r>
       <r>   0.7963  1.0000</r>
       <r>   0.7963  1.0000</r>
       <r>   0.7963  1.0000</r>
       <r>   0.7963  1.0000</r>
       <r>   1.6077  1.0000</r>
       <r>   1.6077  1.0000</r>
       <r>   1.6077  1.0000</r>
       <r>   1.6077  1.0000</r>
       <r>   3.6041  1.0000</r>
       <r>   3.6041  1.0000</r>
       <r>   3.6041  1.0000</r>
       <r>   3.6041  1.0000</r>
       <r>   3.6041  1.0000</r>
       <r>   3.6041  1.0000</r>
       <r>   3.6042  1.0000</r>
       <r>   3.6042  1.0000</r>
       <r>   5.4811  1.0000</r>
       <r>   5.4811  1.0000</r>
       <r>   5.4821  1.0000</r>
       <r>   5.4821  1.0000</r>
       <r>   5.4821  1.0000</r>
       <r>   5.4821  1.0000</r>
       <r>   5.4831  1.0000</r>
       <r>   5.4831  1.0000</r>
       <r>   6.5091  1.0000</r>
       <r>   6.5091  1.0000</r>
       <r>   6.5105  1.0000</r>
       <r>   6.5105  1.0000</r>
       <r>   6.5105  1.0000</r>
       <r>   6.5105  1.0000</r>
       <r>   6.5119  1.0000</r>
       <r>   6.5119  1.0000</r>
       <r>   7.2399  1.0000</r>
       <r>   7.2399  1.0000</r>
       <r>   7.2399  1.0000</r>
       <r>   7.2399  1.0000</r>
       <r>   8.1835  1.0000</r>
       <r>   8.1835  1.0000</r>
       <r>   8.1835  1.0000</r>
       <r>   8.1835  1.0000</r>
       <r>   9.8756  0.0000</r>
       <r>   9.8756  0.0000</r>
       <r>   9.8756  0.0000</r>
       <r>   9.8757  0.0000</r>
       <r>  10.2778  0.0000</r>
       <r>  10.2778  0.0000</r>
       <r>  10.2778  0.0000</r>
       <r>  10.2779  0.0000</r>
       <r>  11.0488  0.0000</r>
       <r>  11.0488  0.0000</r>
       <r>  11.0488  0.0000</r>
       <r>  11.0488  0.0000</r>
       <r>  11.8104  0.0000</r>
       <r>  11.8104  0.0000</r>
       <r>  11.8114  0.0000</r>
       <r>  11.8114  0.0000</r>
       <r>  11.8114  0.0000</r>
       <r>  11.8115  0.0000</r>
       <r>  11.8124  0.0000</r>
       <r>  11.8124  0.0000</r>
       <r>  12.9664  0.0000</r>
       <r>  12.9672  0.0000</r>
       <r>  12.9674  0.0000</r>
       <r>  12.9682  0.0000</r>
      </set>
      <set comment="kpoint 192">
       <r>  -1.2063  1.0000</r>
       <r>  -1.2063  1.0000</r>
       <r>  -1.2063  1.0000</r>
       <r>  -1.2063  1.0000</r>
       <r>   0.4394  1.0000</r>
       <r>   0.4394  1.0000</r>
       <r>   0.4394  1.0000</r>
       <r>   0.4394  1.0000</r>
       <r>   2.0612  1.0000</r>
       <r>   2.0612  1.0000</r>
       <r>   2.0612  1.0000</r>
       <r>   2.0612  1.0000</r>
       <r>   3.6535  1.0000</r>
       <r>   3.6535  1.0000</r>
       <r>   3.6535  1.0000</r>
       <r>   3.6536  1.0000</r>
       <r>   3.6536  1.0000</r>
       <r>   3.6536  1.0000</r>
       <r>   3.6536  1.0000</r>
       <r>   3.6536  1.0000</r>
       <r>   5.1910  1.0000</r>
       <r>   5.1910  1.0000</r>
       <r>   5.1915  1.0000</r>
       <r>   5.1915  1.0000</r>
       <r>   5.1915  1.0000</r>
       <r>   5.1915  1.0000</r>
       <r>   5.1920  1.0000</r>
       <r>   5.1920  1.0000</r>
       <r>   6.6605  1.0000</r>
       <r>   6.6605  1.0000</r>
       <r>   6.6605  1.0000</r>
       <r>   6.6605  1.0000</r>
       <r>   6.8939  1.0000</r>
       <r>   6.8939  1.0000</r>
       <r>   6.8949  1.0000</r>
       <r>   6.8949  1.0000</r>
       <r>   6.8949  1.0000</r>
       <r>   6.8949  1.0000</r>
       <r>   6.8958  1.0000</r>
       <r>   6.8958  1.0000</r>
       <r>   8.3154  1.0000</r>
       <r>   8.3154  1.0000</r>
       <r>   8.3154  1.0000</r>
       <r>   8.3154  1.0000</r>
       <r>   9.9391  0.0000</r>
       <r>   9.9391  0.0000</r>
       <r>   9.9391  0.0000</r>
       <r>   9.9391  0.0000</r>
       <r>  10.4584  0.0000</r>
       <r>  10.4585  0.0000</r>
       <r>  10.4585  0.0000</r>
       <r>  10.4585  0.0000</r>
       <r>  11.2682  0.0000</r>
       <r>  11.2682  0.0000</r>
       <r>  11.2691  0.0000</r>
       <r>  11.2691  0.0000</r>
       <r>  11.2691  0.0000</r>
       <r>  11.2692  0.0000</r>
       <r>  11.2700  0.0000</r>
       <r>  11.2700  0.0000</r>
       <r>  11.4804  0.0000</r>
       <r>  11.4804  0.0000</r>
       <r>  11.4804  0.0000</r>
       <r>  11.4804  0.0000</r>
       <r>  13.1582  0.0000</r>
       <r>  13.1591  0.0000</r>
       <r>  13.1594  0.0000</r>
       <r>  13.1602  0.0000</r>
      </set>
      <set comment="kpoint 193">
       <r>  -1.1201  1.0000</r>
       <r>  -1.1200  1.0000</r>
       <r>  -1.1200  1.0000</r>
       <r>  -1.1200  1.0000</r>
       <r>   0.1156  1.0000</r>
       <r>   0.1156  1.0000</r>
       <r>   0.1156  1.0000</r>
       <r>   0.1156  1.0000</r>
       <r>   2.5459  1.0000</r>
       <r>   2.5459  1.0000</r>
       <r>   2.5459  1.0000</r>
       <r>   2.5459  1.0000</r>
       <r>   3.7358  1.0000</r>
       <r>   3.7358  1.0000</r>
       <r>   3.7358  1.0000</r>
       <r>   3.7358  1.0000</r>
       <r>   3.7358  1.0000</r>
       <r>   3.7358  1.0000</r>
       <r>   3.7359  1.0000</r>
       <r>   3.7359  1.0000</r>
       <r>   4.8996  1.0000</r>
       <r>   4.8996  1.0000</r>
       <r>   4.8999  1.0000</r>
       <r>   4.8999  1.0000</r>
       <r>   4.8999  1.0000</r>
       <r>   4.8999  1.0000</r>
       <r>   4.9003  1.0000</r>
       <r>   4.9003  1.0000</r>
       <r>   6.0296  1.0000</r>
       <r>   6.0296  1.0000</r>
       <r>   6.0296  1.0000</r>
       <r>   6.0296  1.0000</r>
       <r>   7.3416  1.0000</r>
       <r>   7.3416  1.0000</r>
       <r>   7.3423  1.0000</r>
       <r>   7.3423  1.0000</r>
       <r>   7.3423  1.0000</r>
       <r>   7.3423  1.0000</r>
       <r>   7.3431  1.0000</r>
       <r>   7.3431  1.0000</r>
       <r>   8.4310  1.0000</r>
       <r>   8.4310  1.0000</r>
       <r>   8.4310  1.0000</r>
       <r>   8.4310  1.0000</r>
       <r>   9.6317  1.0000</r>
       <r>   9.6317  1.0000</r>
       <r>   9.6317  1.0000</r>
       <r>   9.6317  1.0000</r>
       <r>  10.6697  0.0000</r>
       <r>  10.6697  0.0000</r>
       <r>  10.6705  0.0000</r>
       <r>  10.6706  0.0000</r>
       <r>  10.6706  0.0000</r>
       <r>  10.6706  0.0000</r>
       <r>  10.6714  0.0000</r>
       <r>  10.6714  0.0000</r>
       <r>  11.1990  0.0000</r>
       <r>  11.1990  0.0000</r>
       <r>  11.1990  0.0000</r>
       <r>  11.1990  0.0000</r>
       <r>  11.9421  0.0000</r>
       <r>  11.9421  0.0000</r>
       <r>  11.9421  0.0000</r>
       <r>  11.9421  0.0000</r>
       <r>  13.3120  0.0000</r>
       <r>  13.3128  0.0000</r>
       <r>  13.3131  0.0000</r>
       <r>  13.3139  0.0000</r>
      </set>
      <set comment="kpoint 194">
       <r>  -0.9994  1.0000</r>
       <r>  -0.9993  1.0000</r>
       <r>  -0.9993  1.0000</r>
       <r>  -0.9993  1.0000</r>
       <r>  -0.1750  1.0000</r>
       <r>  -0.1750  1.0000</r>
       <r>  -0.1750  1.0000</r>
       <r>  -0.1750  1.0000</r>
       <r>   3.0610  1.0000</r>
       <r>   3.0610  1.0000</r>
       <r>   3.0610  1.0000</r>
       <r>   3.0610  1.0000</r>
       <r>   3.8507  1.0000</r>
       <r>   3.8507  1.0000</r>
       <r>   3.8508  1.0000</r>
       <r>   3.8508  1.0000</r>
       <r>   3.8508  1.0000</r>
       <r>   3.8508  1.0000</r>
       <r>   3.8508  1.0000</r>
       <r>   3.8508  1.0000</r>
       <r>   4.6302  1.0000</r>
       <r>   4.6302  1.0000</r>
       <r>   4.6304  1.0000</r>
       <r>   4.6304  1.0000</r>
       <r>   4.6304  1.0000</r>
       <r>   4.6304  1.0000</r>
       <r>   4.6306  1.0000</r>
       <r>   4.6306  1.0000</r>
       <r>   5.3956  1.0000</r>
       <r>   5.3956  1.0000</r>
       <r>   5.3956  1.0000</r>
       <r>   5.3957  1.0000</r>
       <r>   7.8287  1.0000</r>
       <r>   7.8287  1.0000</r>
       <r>   7.8294  1.0000</r>
       <r>   7.8294  1.0000</r>
       <r>   7.8294  1.0000</r>
       <r>   7.8294  1.0000</r>
       <r>   7.8301  1.0000</r>
       <r>   7.8301  1.0000</r>
       <r>   8.5603  1.0000</r>
       <r>   8.5603  1.0000</r>
       <r>   8.5604  1.0000</r>
       <r>   8.5604  1.0000</r>
       <r>   9.3557  1.0000</r>
       <r>   9.3557  1.0000</r>
       <r>   9.3557  1.0000</r>
       <r>   9.3557  1.0000</r>
       <r>  10.0644  0.0000</r>
       <r>  10.0644  0.0000</r>
       <r>  10.0651  0.0000</r>
       <r>  10.0651  0.0000</r>
       <r>  10.0651  0.0000</r>
       <r>  10.0652  0.0000</r>
       <r>  10.0659  0.0000</r>
       <r>  10.0659  0.0000</r>
       <r>  12.0185  0.0000</r>
       <r>  12.0186  0.0000</r>
       <r>  12.0186  0.0000</r>
       <r>  12.0186  0.0000</r>
       <r>  12.4334  0.0000</r>
       <r>  12.4334  0.0000</r>
       <r>  12.4334  0.0000</r>
       <r>  12.4334  0.0000</r>
       <r>  13.4585  0.0000</r>
       <r>  13.4591  0.0000</r>
       <r>  13.4596  0.0000</r>
       <r>  13.4597  0.0000</r>
      </set>
      <set comment="kpoint 195">
       <r>  -0.8444  1.0000</r>
       <r>  -0.8444  1.0000</r>
       <r>  -0.8444  1.0000</r>
       <r>  -0.8444  1.0000</r>
       <r>  -0.4320  1.0000</r>
       <r>  -0.4320  1.0000</r>
       <r>  -0.4320  1.0000</r>
       <r>  -0.4320  1.0000</r>
       <r>   3.6054  1.0000</r>
       <r>   3.6054  1.0000</r>
       <r>   3.6054  1.0000</r>
       <r>   3.6054  1.0000</r>
       <r>   3.9982  1.0000</r>
       <r>   3.9982  1.0000</r>
       <r>   3.9982  1.0000</r>
       <r>   3.9983  1.0000</r>
       <r>   3.9983  1.0000</r>
       <r>   3.9983  1.0000</r>
       <r>   3.9983  1.0000</r>
       <r>   3.9983  1.0000</r>
       <r>   4.3888  1.0000</r>
       <r>   4.3888  1.0000</r>
       <r>   4.3889  1.0000</r>
       <r>   4.3889  1.0000</r>
       <r>   4.3889  1.0000</r>
       <r>   4.3889  1.0000</r>
       <r>   4.3891  1.0000</r>
       <r>   4.3891  1.0000</r>
       <r>   4.7759  1.0000</r>
       <r>   4.7759  1.0000</r>
       <r>   4.7759  1.0000</r>
       <r>   4.7760  1.0000</r>
       <r>   8.3484  1.0000</r>
       <r>   8.3484  1.0000</r>
       <r>   8.3491  1.0000</r>
       <r>   8.3491  1.0000</r>
       <r>   8.3491  1.0000</r>
       <r>   8.3491  1.0000</r>
       <r>   8.3497  1.0000</r>
       <r>   8.3497  1.0000</r>
       <r>   8.7145  1.0000</r>
       <r>   8.7145  1.0000</r>
       <r>   8.7145  1.0000</r>
       <r>   8.7145  1.0000</r>
       <r>   9.1111  1.0000</r>
       <r>   9.1111  1.0000</r>
       <r>   9.1111  1.0000</r>
       <r>   9.1111  1.0000</r>
       <r>   9.4706  1.0000</r>
       <r>   9.4706  1.0000</r>
       <r>   9.4712  1.0000</r>
       <r>   9.4712  1.0000</r>
       <r>   9.4713  1.0000</r>
       <r>   9.4713  1.0000</r>
       <r>   9.4719  1.0000</r>
       <r>   9.4719  1.0000</r>
       <r>  12.8881  0.0000</r>
       <r>  12.8882  0.0000</r>
       <r>  12.8882  0.0000</r>
       <r>  12.8882  0.0000</r>
       <r>  12.9535  0.0000</r>
       <r>  12.9535  0.0000</r>
       <r>  12.9535  0.0000</r>
       <r>  12.9536  0.0000</r>
       <r>  13.6167  0.0000</r>
       <r>  13.6174  0.0000</r>
       <r>  13.6175  0.0000</r>
       <r>  13.6181  0.0000</r>
      </set>
      <set comment="kpoint 196">
       <r>  -0.6604  1.0000</r>
       <r>  -0.6557  1.0000</r>
       <r>  -0.6557  1.0000</r>
       <r>  -0.6552  1.0000</r>
       <r>  -0.6552  1.0000</r>
       <r>  -0.6547  1.0000</r>
       <r>  -0.6547  1.0000</r>
       <r>  -0.6500  1.0000</r>
       <r>   4.1672  1.0000</r>
       <r>   4.1732  1.0000</r>
       <r>   4.1732  1.0000</r>
       <r>   4.1768  1.0000</r>
       <r>   4.1771  1.0000</r>
       <r>   4.1773  1.0000</r>
       <r>   4.1777  1.0000</r>
       <r>   4.1777  1.0000</r>
       <r>   4.1778  1.0000</r>
       <r>   4.1778  1.0000</r>
       <r>   4.1778  1.0000</r>
       <r>   4.1778  1.0000</r>
       <r>   4.1778  1.0000</r>
       <r>   4.1778  1.0000</r>
       <r>   4.1779  1.0000</r>
       <r>   4.1779  1.0000</r>
       <r>   4.1779  1.0000</r>
       <r>   4.1779  1.0000</r>
       <r>   4.1784  1.0000</r>
       <r>   4.1785  1.0000</r>
       <r>   4.1789  1.0000</r>
       <r>   4.1824  1.0000</r>
       <r>   4.1824  1.0000</r>
       <r>   4.1884  1.0000</r>
       <r>   8.8909  1.0000</r>
       <r>   8.8909  1.0000</r>
       <r>   8.8935  1.0000</r>
       <r>   8.8948  1.0000</r>
       <r>   8.8967  1.0000</r>
       <r>   8.8971  1.0000</r>
       <r>   8.8973  1.0000</r>
       <r>   8.8973  1.0000</r>
       <r>   8.8975  1.0000</r>
       <r>   8.8975  1.0000</r>
       <r>   8.8975  1.0000</r>
       <r>   8.8976  1.0000</r>
       <r>   8.8976  1.0000</r>
       <r>   8.8977  1.0000</r>
       <r>   8.8977  1.0000</r>
       <r>   8.8977  1.0000</r>
       <r>   8.8979  1.0000</r>
       <r>   8.8979  1.0000</r>
       <r>   8.8980  1.0000</r>
       <r>   8.8985  1.0000</r>
       <r>   8.9004  1.0000</r>
       <r>   8.9017  1.0000</r>
       <r>   8.9043  1.0000</r>
       <r>   8.9043  1.0000</r>
       <r>  13.4989  0.0000</r>
       <r>  13.4997  0.0000</r>
       <r>  13.4997  0.0000</r>
       <r>  13.4998  0.0000</r>
       <r>  13.5018  0.0000</r>
       <r>  13.5020  0.0000</r>
       <r>  13.5020  0.0000</r>
       <r>  13.5029  0.0000</r>
       <r>  13.7937  0.0000</r>
       <r>  13.7947  0.0000</r>
       <r>  13.7953  0.0000</r>
       <r>  13.7958  0.0000</r>
      </set>
     </set>
    </set>
   </array>
  </eigenvalues>
 </calculation>
 <structure name="finalpos" >
  <crystal>
   <varray name="basis" >
    <v>       7.67088210      0.00000000      0.00000000</v>
    <v>       0.00000000      7.67088210      0.00000000</v>
    <v>       0.00000000      0.00000000      7.67088210</v>
   </varray>
   <i name="volume">    451.37336024</i>
   <varray name="rec_basis" >
    <v>       0.13036310      0.00000000      0.00000000</v>
    <v>       0.00000000      0.13036310      0.00000000</v>
    <v>       0.00000000      0.00000000      0.13036310</v>
   </varray>
  </crystal>
  <varray name="positions" >
   <v>       0.25130363      0.25000000      0.00000000</v>
   <v>       0.75000000      0.25000000      0.00000000</v>
   <v>       0.25000000      0.75000000      0.00000000</v>
   <v>       0.75000000      0.75000000      0.00000000</v>
   <v>       0.25000000      0.25000000      0.50000000</v>
   <v>       0.75000000      0.25000000      0.50000000</v>
   <v>       0.25000000      0.75000000      0.50000000</v>
   <v>       0.75000000      0.75000000      0.50000000</v>
   <v>       0.25000000      0.00000000      0.25000000</v>
   <v>       0.75000000      0.00000000      0.25000000</v>
   <v>       0.25000000      0.50000000      0.25000000</v>
   <v>       0.75000000      0.50000000      0.25000000</v>
   <v>       0.25000000      0.00000000      0.75000000</v>
   <v>       0.75000000      0.00000000      0.75000000</v>
   <v>       0.25000000      0.50000000      0.75000000</v>
   <v>       0.75000000      0.50000000      0.75000000</v>
   <v>       0.00000000      0.25000000      0.25000000</v>
   <v>       0.50000000      0.25000000      0.25000000</v>
   <v>       0.00000000      0.75000000      0.25000000</v>
   <v>       0.50000000      0.75000000      0.25000000</v>
   <v>       0.00000000      0.25000000      0.75000000</v>
   <v>       0.50000000      0.25000000      0.75000000</v>
   <v>       0.00000000      0.75000000      0.75000000</v>
   <v>       0.50000000      0.75000000      0.75000000</v>
   <v>       0.00000000      0.00000000      0.00000000</v>
   <v>       0.50000000      0.00000000      0.00000000</v>
   <v>       0.00000000      0.50000000      0.00000000</v>
   <v>       0.50000000      0.50000000      0.00000000</v>
   <v>       0.00000000      0.00000000      0.50000000</v>
   <v>       0.50000000      0.00000000      0.50000000</v>
   <v>       0.00000000      0.50000000      0.50000000</v>
   <v>       0.50000000      0.50000000      0.50000000</v>
  </varray>
 </structure>
</modeling>
