 running on    4 nodes
 distr:  one band on    1 nodes,    4 groups
 vasp.4.6.28 25Jul05 complex 
 POSCAR found :  1 types and   32 ions

 ----------------------------------------------------------------------------- 
|                                                                             |
|  ADVICE TO THIS USER RUNNING 'VASP/VAMP'   (HEAR YOUR MASTER'S VOICE ...):  |
|                                                                             |
|      You have a (more or less) 'large supercell' and for larger cells       |
|      it might be more efficient to use real space projection operators      |
|      So try LREAL= Auto  in the INCAR   file.                               |
|      Mind: If you want to do an extremely accurate calculations keep the    |
|      reciprocal projection scheme          (i.e. LREAL=.FALSE.)             |
|                                                                             |
 ----------------------------------------------------------------------------- 

 LDA part: xc-table for Pade appr. of Perdew
 POSCAR, INCAR and KPOINTS ok, starting setup
 WARNING: wrap around errors must be expected
 FFT: planning ...           1
 reading WAVECAR
 WARNING: random wavefunctions but no delay for mixing, default for NELMDL
 entering main loop
       N       E                     dE             d eps       ncg     rms          rms(c)
DAV:   1     0.442464369217E+04    0.44246E+04   -0.21549E+05 83176   0.233E+03
DAV:   2     0.139506103268E+03   -0.42851E+04   -0.41035E+04 83104   0.568E+02
DAV:   3    -0.920611149325E+02   -0.23157E+03   -0.22044E+03 86640   0.159E+02
DAV:   4    -0.968668357497E+02   -0.48057E+01   -0.47736E+01 89308   0.218E+01
DAV:   5    -0.968941710311E+02   -0.27335E-01   -0.27305E-01 88312   0.135E+00    0.169E+01
DAV:   6    -0.893493189693E+02    0.75449E+01   -0.26085E+01 87676   0.202E+01    0.318E+00
DAV:   7    -0.890720999930E+02    0.27722E+00   -0.56551E-01 87200   0.195E+00    0.153E+00
DAV:   8    -0.889569034314E+02    0.11520E+00   -0.39029E-02 87316   0.788E-01    0.122E-01
DAV:   9    -0.889577543217E+02   -0.85089E-03   -0.23122E-03 88776   0.153E-01    0.773E-02
DAV:  10    -0.889576101940E+02    0.14413E-03   -0.19592E-04 87016   0.464E-02    0.871E-03
DAV:  11    -0.889576057807E+02    0.44133E-05   -0.42916E-06 88896   0.836E-03    0.347E-03
DAV:  12    -0.889576033724E+02    0.24082E-05   -0.50610E-07 87652   0.275E-03    0.108E-03
DAV:  13    -0.889576001813E+02    0.31911E-05   -0.64248E-08 81384   0.754E-04    0.108E-04
DAV:  14    -0.889575998207E+02    0.36064E-06   -0.18930E-09 46916   0.203E-04    0.412E-05
DAV:  15    -0.889575997696E+02    0.51092E-07   -0.24548E-10 45840   0.921E-05    0.227E-05
DAV:  16    -0.889575997369E+02    0.32698E-07    0.42558E-11 45032   0.338E-05    0.126E-05
DAV:  17    -0.889575997152E+02    0.21631E-07    0.73051E-11 44844   0.204E-05    0.174E-05
DAV:  18    -0.889575997123E+02    0.29031E-08    0.96051E-11 44476   0.110E-05
   1 F= -.88957600E+02 E0= -.88957178E+02  d E =-.842715E-03
