  32  32   0   0
  0.1646436E+02  0.8076656E-09  0.8076656E-09  0.8076656E-09  0.5000000E-15
  1.000000000000000E-004
  CAR 
 unknown system                          
     13.32983733     -5.02147683  301      3.87159210      1.00000000
     -5.021  0.0000E+00  0.0000E+00
     -4.960  0.0000E+00  0.0000E+00
     -4.899  0.0000E+00  0.0000E+00
     -4.838  0.0000E+00  0.0000E+00
     -4.777  0.0000E+00  0.0000E+00
     -4.716  0.0000E+00  0.0000E+00
     -4.654  0.0000E+00  0.0000E+00
     -4.593  0.0000E+00  0.0000E+00
     -4.532  0.0000E+00  0.0000E+00
     -4.471  0.0000E+00  0.0000E+00
     -4.410  0.0000E+00  0.0000E+00
     -4.349  0.0000E+00  0.0000E+00
     -4.287  0.0000E+00  0.0000E+00
     -4.226  0.3490E-09  0.2135E-10
     -4.165  0.1004E+00  0.6144E-02
     -4.104  0.5452E+00  0.3950E-01
     -4.043  0.9484E+00  0.9751E-01
     -3.982  0.1456E+01  0.1866E+00
     -3.920  0.1598E+01  0.2844E+00
     -3.859  0.1345E+01  0.3667E+00
     -3.798  0.2110E+01  0.4957E+00
     -3.737  0.1227E+01  0.5708E+00
     -3.676  0.2502E+01  0.7239E+00
     -3.615  0.2249E+01  0.8615E+00
     -3.553  0.2931E+01  0.1041E+01
     -3.492  0.2301E+01  0.1182E+01
     -3.431  0.3585E+01  0.1401E+01
     -3.370  0.2791E+01  0.1572E+01
     -3.309  0.2647E+01  0.1734E+01
     -3.248  0.4398E+01  0.2003E+01
     -3.186  0.2859E+01  0.2178E+01
     -3.125  0.4422E+01  0.2448E+01
     -3.064  0.4409E+01  0.2718E+01
     -3.003  0.3685E+01  0.2943E+01
     -2.942  0.5713E+01  0.3293E+01
     -2.880  0.4643E+01  0.3577E+01
     -2.819  0.7623E+01  0.4043E+01
     -2.758  0.1901E+02  0.5206E+01
     -2.697  0.2926E+02  0.6996E+01
     -2.636  0.4784E+02  0.9922E+01
     -2.575  0.5821E+02  0.1348E+02
     -2.513  0.6276E+02  0.1732E+02
     -2.452  0.7155E+02  0.2170E+02
     -2.391  0.8473E+02  0.2688E+02
     -2.330  0.9603E+02  0.3276E+02
     -2.269  0.1185E+03  0.4001E+02
     -2.208  0.1169E+03  0.4716E+02
     -2.146  0.1020E+03  0.5340E+02
     -2.085  0.9062E+02  0.5895E+02
     -2.024  0.8985E+02  0.6444E+02
     -1.963  0.7354E+02  0.6894E+02
     -1.902  0.8369E+02  0.7406E+02
     -1.841  0.5923E+02  0.7769E+02
     -1.779  0.6191E+02  0.8147E+02
     -1.718  0.6276E+02  0.8531E+02
     -1.657  0.6443E+02  0.8925E+02
     -1.596  0.8223E+02  0.9429E+02
     -1.535  0.7246E+02  0.9872E+02
     -1.474  0.8237E+02  0.1038E+03
     -1.412  0.8335E+02  0.1089E+03
     -1.351  0.7788E+02  0.1136E+03
     -1.290  0.7277E+02  0.1181E+03
     -1.229  0.7491E+02  0.1227E+03
     -1.168  0.8256E+02  0.1277E+03
     -1.107  0.7710E+02  0.1324E+03
     -1.045  0.8667E+02  0.1377E+03
     -0.984  0.1061E+03  0.1442E+03
     -0.923  0.1157E+03  0.1513E+03
     -0.862  0.1363E+03  0.1596E+03
     -0.801  0.1580E+03  0.1693E+03
     -0.740  0.1042E+03  0.1757E+03
     -0.678  0.1012E+03  0.1819E+03
     -0.617  0.7314E+02  0.1863E+03
     -0.556  0.6969E+02  0.1906E+03
     -0.495  0.7924E+02  0.1955E+03
     -0.434  0.8351E+02  0.2006E+03
     -0.372  0.7450E+02  0.2051E+03
     -0.311  0.7625E+02  0.2098E+03
     -0.250  0.8904E+02  0.2152E+03
     -0.189  0.9357E+02  0.2210E+03
     -0.128  0.9531E+02  0.2268E+03
     -0.067  0.8899E+02  0.2322E+03
     -0.005  0.1015E+03  0.2384E+03
      0.056  0.9843E+02  0.2445E+03
      0.117  0.8735E+02  0.2498E+03
      0.178  0.8324E+02  0.2549E+03
      0.239  0.7984E+02  0.2598E+03
      0.300  0.7902E+02  0.2646E+03
      0.362  0.6961E+02  0.2689E+03
      0.423  0.8160E+02  0.2739E+03
      0.484  0.7723E+02  0.2786E+03
      0.545  0.7918E+02  0.2834E+03
      0.606  0.7966E+02  0.2883E+03
      0.667  0.1048E+03  0.2947E+03
      0.729  0.9838E+02  0.3007E+03
      0.790  0.1473E+03  0.3098E+03
      0.851  0.1428E+03  0.3185E+03
      0.912  0.8618E+02  0.3238E+03
      0.973  0.5912E+02  0.3274E+03
      1.034  0.5041E+02  0.3305E+03
      1.096  0.1981E+02  0.3317E+03
      1.157  0.6999E+01  0.3321E+03
      1.218  0.3978E+01  0.3324E+03
      1.279  0.6068E+01  0.3327E+03
      1.340  0.8910E+01  0.3333E+03
      1.401  0.7003E+01  0.3337E+03
      1.463  0.6318E+01  0.3341E+03
      1.524  0.4241E+01  0.3343E+03
      1.585  0.9545E+01  0.3349E+03
      1.646  0.8820E+01  0.3355E+03
      1.707  0.4542E+01  0.3357E+03
      1.769  0.5241E+01  0.3361E+03
      1.830  0.6483E+01  0.3365E+03
      1.891  0.9801E+01  0.3371E+03
      1.952  0.7706E+01  0.3375E+03
      2.013  0.6251E+01  0.3379E+03
      2.074  0.4295E+01  0.3382E+03
      2.136  0.4367E+01  0.3384E+03
      2.197  0.8576E+01  0.3390E+03
      2.258  0.1226E+02  0.3397E+03
      2.319  0.5451E+01  0.3401E+03
      2.380  0.6757E+01  0.3405E+03
      2.441  0.4798E+01  0.3408E+03
      2.503  0.3945E+01  0.3410E+03
      2.564  0.1215E+02  0.3417E+03
      2.625  0.8152E+01  0.3422E+03
      2.686  0.7103E+01  0.3427E+03
      2.747  0.6716E+01  0.3431E+03
      2.808  0.5749E+01  0.3434E+03
      2.870  0.3765E+01  0.3437E+03
      2.931  0.1073E+02  0.3443E+03
      2.992  0.1005E+02  0.3449E+03
      3.053  0.8589E+01  0.3455E+03
      3.114  0.5964E+01  0.3458E+03
      3.175  0.6886E+01  0.3463E+03
      3.237  0.5663E+01  0.3466E+03
      3.298  0.4845E+01  0.3469E+03
      3.359  0.1380E+02  0.3477E+03
      3.420  0.8331E+01  0.3483E+03
      3.481  0.1094E+02  0.3489E+03
      3.542  0.5713E+01  0.3493E+03
      3.604  0.8429E+01  0.3498E+03
      3.665  0.3296E+01  0.3500E+03
      3.726  0.8512E+01  0.3505E+03
      3.787  0.1255E+02  0.3513E+03
      3.848  0.7460E+01  0.3517E+03
      3.909  0.1271E+02  0.3525E+03
      3.971  0.4269E+01  0.3528E+03
      4.032  0.6576E+01  0.3532E+03
      4.093  0.6487E+01  0.3536E+03
      4.154  0.8279E+01  0.3541E+03
      4.215  0.1277E+02  0.3549E+03
      4.277  0.7922E+01  0.3553E+03
      4.338  0.8993E+01  0.3559E+03
      4.399  0.7294E+01  0.3563E+03
      4.460  0.7190E+01  0.3568E+03
      4.521  0.6986E+01  0.3572E+03
      4.582  0.4815E+01  0.3575E+03
      4.644  0.1051E+02  0.3581E+03
      4.705  0.1251E+02  0.3589E+03
      4.766  0.9366E+01  0.3595E+03
      4.827  0.7239E+01  0.3599E+03
      4.888  0.4840E+01  0.3602E+03
      4.949  0.9134E+01  0.3608E+03
      5.011  0.6124E+01  0.3612E+03
      5.072  0.6488E+01  0.3616E+03
      5.133  0.1072E+02  0.3622E+03
      5.194  0.9582E+01  0.3628E+03
      5.255  0.1070E+02  0.3635E+03
      5.316  0.7915E+01  0.3639E+03
      5.378  0.4976E+01  0.3642E+03
      5.439  0.9089E+01  0.3648E+03
      5.500  0.3849E+01  0.3650E+03
      5.561  0.1125E+02  0.3657E+03
      5.622  0.9271E+01  0.3663E+03
      5.683  0.8330E+01  0.3668E+03
      5.745  0.9078E+01  0.3674E+03
      5.806  0.7610E+01  0.3678E+03
      5.867  0.8176E+01  0.3683E+03
      5.928  0.7430E+01  0.3688E+03
      5.989  0.5182E+01  0.3691E+03
      6.050  0.4465E+01  0.3694E+03
      6.112  0.1209E+02  0.3701E+03
      6.173  0.8157E+01  0.3706E+03
      6.234  0.7726E+01  0.3711E+03
      6.295  0.7851E+01  0.3716E+03
      6.356  0.5007E+01  0.3719E+03
      6.418  0.6727E+01  0.3723E+03
      6.479  0.7581E+01  0.3727E+03
      6.540  0.6221E+01  0.3731E+03
      6.601  0.7269E+01  0.3736E+03
      6.662  0.6726E+01  0.3740E+03
      6.723  0.7004E+01  0.3744E+03
      6.785  0.6774E+01  0.3748E+03
      6.846  0.5476E+01  0.3751E+03
      6.907  0.8261E+01  0.3757E+03
      6.968  0.5073E+01  0.3760E+03
      7.029  0.4850E+01  0.3763E+03
      7.090  0.4569E+01  0.3765E+03
      7.152  0.7697E+01  0.3770E+03
      7.213  0.4998E+01  0.3773E+03
      7.274  0.7035E+01  0.3777E+03
      7.335  0.5866E+01  0.3781E+03
      7.396  0.3768E+01  0.3783E+03
      7.457  0.5886E+01  0.3787E+03
      7.519  0.5518E+01  0.3790E+03
      7.580  0.4295E+01  0.3793E+03
      7.641  0.2349E+01  0.3794E+03
      7.702  0.8150E+01  0.3799E+03
      7.763  0.1333E+02  0.3808E+03
      7.824  0.9101E+01  0.3813E+03
      7.886  0.7512E+01  0.3818E+03
      7.947  0.1321E+02  0.3826E+03
      8.008  0.1109E+02  0.3833E+03
      8.069  0.8565E+01  0.3838E+03
      8.130  0.1038E+02  0.3844E+03
      8.191  0.1254E+02  0.3852E+03
      8.253  0.1147E+02  0.3859E+03
      8.314  0.9863E+01  0.3865E+03
      8.375  0.1276E+02  0.3873E+03
      8.436  0.6889E+01  0.3877E+03
      8.497  0.1312E+02  0.3885E+03
      8.558  0.9587E+01  0.3891E+03
      8.620  0.8618E+01  0.3896E+03
      8.681  0.1139E+02  0.3903E+03
      8.742  0.9690E+01  0.3909E+03
      8.803  0.1066E+02  0.3916E+03
      8.864  0.1051E+02  0.3922E+03
      8.926  0.9321E+01  0.3928E+03
      8.987  0.8659E+01  0.3933E+03
      9.048  0.1264E+02  0.3941E+03
      9.109  0.7456E+01  0.3945E+03
      9.170  0.7043E+01  0.3950E+03
      9.231  0.1006E+02  0.3956E+03
      9.293  0.1190E+02  0.3963E+03
      9.354  0.5698E+01  0.3966E+03
      9.415  0.1101E+02  0.3973E+03
      9.476  0.1126E+02  0.3980E+03
      9.537  0.7427E+01  0.3985E+03
      9.598  0.6735E+01  0.3989E+03
      9.660  0.9532E+01  0.3995E+03
      9.721  0.1109E+02  0.4001E+03
      9.782  0.8516E+01  0.4007E+03
      9.843  0.5172E+01  0.4010E+03
      9.904  0.1113E+02  0.4017E+03
      9.965  0.8464E+01  0.4022E+03
     10.027  0.7203E+01  0.4026E+03
     10.088  0.9892E+01  0.4032E+03
     10.149  0.1020E+02  0.4038E+03
     10.210  0.5960E+01  0.4042E+03
     10.271  0.8887E+01  0.4048E+03
     10.332  0.8632E+01  0.4053E+03
     10.394  0.7686E+01  0.4058E+03
     10.455  0.6844E+01  0.4062E+03
     10.516  0.9981E+01  0.4068E+03
     10.577  0.8921E+01  0.4073E+03
     10.638  0.7533E+01  0.4078E+03
     10.699  0.7908E+01  0.4083E+03
     10.761  0.8494E+01  0.4088E+03
     10.822  0.8658E+01  0.4093E+03
     10.883  0.1013E+02  0.4099E+03
     10.944  0.1137E+02  0.4106E+03
     11.005  0.9096E+01  0.4112E+03
     11.067  0.1452E+02  0.4121E+03
     11.128  0.1618E+02  0.4131E+03
     11.189  0.9946E+01  0.4137E+03
     11.250  0.1124E+02  0.4144E+03
     11.311  0.1205E+02  0.4151E+03
     11.372  0.8744E+01  0.4156E+03
     11.434  0.9498E+01  0.4162E+03
     11.495  0.1899E+02  0.4174E+03
     11.556  0.1884E+02  0.4185E+03
     11.617  0.1516E+02  0.4195E+03
     11.678  0.1146E+02  0.4202E+03
     11.739  0.1070E+02  0.4208E+03
     11.801  0.8324E+01  0.4213E+03
     11.862  0.7407E+01  0.4218E+03
     11.923  0.6812E+01  0.4222E+03
     11.984  0.6418E+01  0.4226E+03
     12.045  0.5733E+01  0.4229E+03
     12.106  0.4021E+01  0.4232E+03
     12.168  0.7416E+01  0.4236E+03
     12.229  0.1705E+01  0.4237E+03
     12.290  0.1496E+01  0.4238E+03
     12.351  0.8940E+00  0.4239E+03
     12.412  0.9005E+00  0.4239E+03
     12.473  0.4654E+00  0.4240E+03
     12.535  0.4428E+00  0.4240E+03
     12.596  0.0000E+00  0.4240E+03
     12.657  0.0000E+00  0.4240E+03
     12.718  0.0000E+00  0.4240E+03
     12.779  0.0000E+00  0.4240E+03
     12.840  0.0000E+00  0.4240E+03
     12.902  0.0000E+00  0.4240E+03
     12.963  0.0000E+00  0.4240E+03
     13.024  0.0000E+00  0.4240E+03
     13.085  0.0000E+00  0.4240E+03
     13.146  0.0000E+00  0.4240E+03
     13.207  0.0000E+00  0.4240E+03
     13.269  0.0000E+00  0.4240E+03
     13.330  0.0000E+00  0.4240E+03
