   32   32    1    1
  0.1646436E+02  0.8076656E-09  0.8076656E-09  0.8076656E-09  0.5000000E-15
  1.000000000000000E-004
  CAR 
 unknown system                          
  352  196  212
 
  0.0000000E+00  0.0000000E+00  0.0000000E+00  0.5787037E-03
   1       -4.1873
   2       -2.8644
   3       -2.8644
   4       -2.8644
   5       -2.8037
   6       -2.8037
   7       -2.8037
   8       -2.8037
   9       -2.7137
  10       -2.7137
  11       -2.7137
  12       -2.3660
  13       -2.3641
  14       -2.3640
  15       -2.3640
  16       -2.3640
  17       -2.3621
  18       -2.0736
  19       -2.0717
  20       -2.0717
  21       -2.0717
  22       -2.0717
  23       -2.0698
  24       -1.9673
  25       -1.9654
  26       -1.9654
  27       -1.9653
  28       -1.9653
  29       -1.9634
  30       -1.7106
  31       -1.7106
  32       -1.7101
  33       -1.7093
  34       -1.7089
  35       -1.7089
  36       -1.7089
  37       -1.7089
  38       -1.7085
  39       -1.7076
  40       -1.7072
  41       -1.7072
  42       -1.4807
  43       -1.4782
  44       -1.4782
  45       -1.4772
  46       -1.4771
  47       -1.4771
  48       -1.4771
  49       -1.4771
  50       -1.4771
  51       -1.4762
  52       -1.4762
  53       -1.4738
  54       -1.4182
  55       -1.4182
  56       -1.4162
  57       -1.4162
  58       -1.4162
  59       -1.4161
  60       -1.4161
  61       -1.4161
  62       -1.4161
  63       -1.4159
  64       -1.4140
  65       -1.4140
  66       -1.1466
  67       -1.1466
  68       -1.1466
  69       -1.1466
  70       -1.1465
  71       -1.1465
  72       -1.1465
  73       -1.1465
  74       -1.1218
  75       -1.1218
  76       -1.1218
  77       -1.0680
  78       -1.0654
  79       -1.0651
  80       -1.0651
  81       -1.0649
  82       -1.0649
  83       -1.0649
  84       -1.0649
  85       -1.0647
  86       -1.0647
  87       -1.0644
  88       -1.0619
  89       -0.4280
  90       -0.4273
  91       -0.4263
  92       -0.4263
  93       -0.4258
  94       -0.4258
  95       -0.4257
  96       -0.4257
  97       -0.4252
  98       -0.4252
  99       -0.4242
 100       -0.4236
 101       -0.1962
 102       -0.1962
 103       -0.1940
 104       -0.1940
 105       -0.1938
 106       -0.1938
 107       -0.1938
 108       -0.1938
 109       -0.1936
 110       -0.1936
 111       -0.1914
 112       -0.1914
 113       -0.0713
 114       -0.0695
 115       -0.0694
 116       -0.0694
 117       -0.0694
 118       -0.0676
 119       -0.0197
 120       -0.0193
 121       -0.0136
 122       -0.0130
 123       -0.0130
 124       -0.0120
 125       -0.0119
 126       -0.0111
 127       -0.0101
 128       -0.0101
 129       -0.0087
 130       -0.0083
 131       -0.0083
 132       -0.0083
 133       -0.0083
 134       -0.0082
 135       -0.0078
 136       -0.0070
 137       -0.0053
 138       -0.0053
 139        0.3748
 140        0.3759
 141        0.3759
 142        0.3759
 143        0.3760
 144        0.3770
 145        0.7927
 146        0.7927
 147        0.7927
 148        0.8256
 149        0.8257
 150        0.8257
 151        0.8257
 152        0.8257
 153        0.8257
 154        0.8257
 155        0.8257
 156        1.0462
 157        1.0465
 158        1.0465
 159        1.0465
 160        1.0465
 161        1.0465
 162        1.0476
 163        1.0476
 164        1.0476
 165        1.0476
 166        1.0477
 167        1.0479
 168        3.3123
 169        3.3128
 170        3.3128
 171        3.3140
 172        3.3143
 173        3.3143
 174        3.3143
 175        3.3143
 176        3.3147
 177        3.3157
 178        3.3157
 179        3.3162
 180        3.3409
 181        3.3409
 182        3.3409
 183        3.3410
 184        5.4301
 185        5.4301
 186        5.4302
 187        7.6538
 188        7.6538
 189        7.6538
 190        7.6538
 191        9.9514
 192        9.9514
 193        9.9541
 194        9.9541
 195        9.9546
 196        9.9546
 197        9.9546
 198        9.9546
 199        9.9550
 200        9.9550
 201        9.9577
 202        9.9577
 203       10.8709
 204       10.8710
 205       10.8710
 206       11.2136
 207       11.2136
 208       11.2137
 209       11.2137
 210       11.2137
 211       11.2138
 212       12.2278
 
  0.8333333E-01  0.0000000E+00  0.0000000E+00  0.1157407E-02
   1       -4.1685
   2       -2.8563
   3       -2.8540
   4       -2.8540
   5       -2.7942
   6       -2.7942
   7       -2.7942
   8       -2.7942
   9       -2.7076
  10       -2.7044
  11       -2.7044
  12       -2.4740
  13       -2.3514
  14       -2.3514
  15       -2.3513
  16       -2.3513
  17       -2.3211
  18       -2.0909
  19       -2.0907
  20       -2.0679
  21       -2.0637
  22       -2.0637
  23       -2.0637
  24       -2.0636
  25       -1.9602
  26       -1.9602
  27       -1.9602
  28       -1.9601
  29       -1.8612
  30       -1.7858
  31       -1.7858
  32       -1.7858
  33       -1.7858
  34       -1.7257
  35       -1.7257
  36       -1.7257
  37       -1.7257
  38       -1.6918
  39       -1.6918
  40       -1.6918
  41       -1.6918
  42       -1.6180
  43       -1.6180
  44       -1.5192
  45       -1.5192
  46       -1.5192
  47       -1.5191
  48       -1.4445
  49       -1.4441
  50       -1.4441
  51       -1.4441
  52       -1.4334
  53       -1.4334
  54       -1.4334
  55       -1.4331
  56       -1.4198
  57       -1.4198
  58       -1.4198
  59       -1.4198
  60       -1.4152
  61       -1.4152
  62       -1.4152
  63       -1.4149
  64       -1.1999
  65       -1.1999
  66       -1.1500
  67       -1.1500
  68       -1.1500
  69       -1.1500
  70       -1.1394
  71       -1.1394
  72       -1.1394
  73       -1.1394
  74       -1.1295
  75       -1.1148
  76       -1.1148
  77       -1.1121
  78       -1.1121
  79       -1.1120
  80       -1.1120
  81       -1.0702
  82       -1.0702
  83       -1.0701
  84       -1.0701
  85       -1.0164
  86       -1.0164
  87       -1.0164
  88       -1.0163
  89       -0.4595
  90       -0.4594
  91       -0.4594
  92       -0.4594
  93       -0.4185
  94       -0.4185
  95       -0.4184
  96       -0.4184
  97       -0.3819
  98       -0.3819
  99       -0.3818
 100       -0.3818
 101       -0.3286
 102       -0.3286
 103       -0.3226
 104       -0.3226
 105       -0.3226
 106       -0.3226
 107       -0.2655
 108       -0.1943
 109       -0.1943
 110       -0.1943
 111       -0.1943
 112       -0.0720
 113       -0.0720
 114       -0.0718
 115       -0.0718
 116       -0.0539
 117       -0.0539
 118       -0.0271
 119       -0.0162
 120       -0.0121
 121       -0.0119
 122       -0.0119
 123       -0.0119
 124        0.0074
 125        0.0076
 126        0.0273
 127        0.0273
 128        0.0273
 129        0.0274
 130        0.0515
 131        0.0516
 132        0.0516
 133        0.0516
 134        0.0711
 135        0.0711
 136        0.0712
 137        0.0712
 138        0.2279
 139        0.3232
 140        0.3883
 141        0.3883
 142        0.3883
 143        0.3883
 144        0.4291
 145        0.7823
 146        0.7824
 147        0.7891
 148        0.7944
 149        0.7944
 150        0.7944
 151        0.7945
 152        0.8165
 153        0.8165
 154        0.8165
 155        0.8165
 156        1.0076
 157        1.0076
 158        1.0337
 159        1.0337
 160        1.0337
 161        1.0337
 162        1.0338
 163        1.0338
 164        1.0462
 165        1.0465
 166        1.0476
 167        1.0479
 168        2.9250
 169        2.9250
 170        2.9250
 171        2.9250
 172        3.3151
 173        3.3152
 174        3.3152
 175        3.3152
 176        3.3414
 177        3.3414
 178        3.3414
 179        3.3415
 180        3.7358
 181        3.7358
 182        3.7358
 183        3.7358
 184        5.3021
 185        5.4841
 186        5.4841
 187        7.7104
 188        7.7104
 189        7.7104
 190        7.7104
 191        9.4249
 192        9.4249
 193        9.6364
 194        9.6364
 195        9.6364
 196        9.6364
 197        9.9848
 198        9.9848
 199        9.9848
 200        9.9848
 201       10.4894
 202       10.4894
 203       10.8733
 204       10.8733
 205       11.0272
 206       11.1977
 207       11.1977
 208       11.3863
 209       11.3863
 210       11.3863
 211       11.3863
 212       12.2722
 
  0.1666667E+00  0.0000000E+00  0.0000000E+00  0.1157407E-02
   1       -4.1123
   2       -2.8325
   3       -2.8233
   4       -2.8233
   5       -2.7657
   6       -2.7657
   7       -2.7657
   8       -2.7657
   9       -2.6895
  10       -2.6767
  11       -2.6767
  12       -2.6465
  13       -2.3327
  14       -2.3137
  15       -2.3136
  16       -2.3136
  17       -2.3136
  18       -2.1671
  19       -2.1446
  20       -2.1445
  21       -2.0400
  22       -2.0400
  23       -2.0400
  24       -2.0400
  25       -1.9449
  26       -1.9448
  27       -1.9448
  28       -1.9447
  29       -1.9277
  30       -1.9277
  31       -1.9277
  32       -1.9276
  33       -1.8045
  34       -1.8045
  35       -1.7573
  36       -1.7399
  37       -1.7399
  38       -1.7399
  39       -1.7399
  40       -1.6831
  41       -1.6831
  42       -1.6831
  43       -1.6831
  44       -1.5687
  45       -1.5687
  46       -1.5687
  47       -1.5687
  48       -1.4300
  49       -1.4300
  50       -1.4300
  51       -1.4299
  52       -1.4209
  53       -1.4202
  54       -1.4202
  55       -1.4202
  56       -1.4127
  57       -1.4126
  58       -1.4126
  59       -1.4121
  60       -1.3789
  61       -1.3789
  62       -1.3789
  63       -1.3788
  64       -1.1921
  65       -1.1921
  66       -1.1921
  67       -1.1921
  68       -1.1602
  69       -1.1602
  70       -1.1601
  71       -1.1601
  72       -1.1524
  73       -1.1183
  74       -1.1180
  75       -1.1180
  76       -1.1180
  77       -1.1156
  78       -1.1156
  79       -1.1156
  80       -1.1153
  81       -1.0936
  82       -1.0936
  83       -0.9706
  84       -0.9706
  85       -0.8834
  86       -0.8834
  87       -0.8834
  88       -0.8834
  89       -0.5376
  90       -0.5375
  91       -0.5375
  92       -0.5375
  93       -0.4916
  94       -0.4916
  95       -0.4916
  96       -0.4916
  97       -0.4565
  98       -0.4565
  99       -0.3657
 100       -0.3608
 101       -0.3608
 102       -0.3608
 103       -0.3606
 104       -0.3106
 105       -0.3106
 106       -0.3105
 107       -0.3105
 108       -0.1958
 109       -0.1958
 110       -0.1958
 111       -0.1957
 112       -0.1200
 113       -0.1200
 114       -0.1200
 115       -0.1200
 116       -0.0502
 117       -0.0125
 118       -0.0125
 119       -0.0125
 120       -0.0125
 121       -0.0062
 122        0.0623
 123        0.0624
 124        0.0887
 125        0.0887
 126        0.1109
 127        0.1110
 128        0.1110
 129        0.1110
 130        0.1625
 131        0.1625
 132        0.1626
 133        0.1626
 134        0.1652
 135        0.1652
 136        0.1653
 137        0.1653
 138        0.2717
 139        0.4597
 140        0.4597
 141        0.4597
 142        0.4597
 143        0.4816
 144        0.6146
 145        0.7043
 146        0.7043
 147        0.7043
 148        0.7043
 149        0.7515
 150        0.7515
 151        0.7782
 152        0.7894
 153        0.7894
 154        0.7894
 155        0.7894
 156        0.8966
 157        0.8966
 158        0.9927
 159        0.9927
 160        0.9928
 161        0.9928
 162        0.9962
 163        0.9962
 164        1.0462
 165        1.0465
 166        1.0475
 167        1.0479
 168        2.5648
 169        2.5648
 170        2.5648
 171        2.5648
 172        3.3176
 173        3.3177
 174        3.3177
 175        3.3177
 176        3.3425
 177        3.3425
 178        3.3425
 179        3.3426
 180        4.1919
 181        4.1919
 182        4.1919
 183        4.1919
 184        4.9560
 185        5.6403
 186        5.6403
 187        7.8771
 188        7.8771
 189        7.8771
 190        7.8771
 191        8.9039
 192        8.9039
 193        9.0189
 194        9.0189
 195        9.0190
 196        9.0190
 197       10.0746
 198       10.0746
 199       10.0746
 200       10.0746
 201       10.8804
 202       10.8804
 203       11.0260
 204       11.0260
 205       11.1570
 206       11.1570
 207       11.4578
 208       11.5811
 209       11.5811
 210       11.5811
 211       11.5811
 212       11.9794
 
  0.2500000E+00  0.0000000E+00  0.0000000E+00  0.1157407E-02
   1       -4.0195
   2       -2.8615
   3       -2.7936
   4       -2.7731
   5       -2.7731
   6       -2.7184
   7       -2.7184
   8       -2.7184
   9       -2.7184
  10       -2.6595
  11       -2.6307
  12       -2.6307
  13       -2.3804
  14       -2.2615
  15       -2.2525
  16       -2.2524
  17       -2.2523
  18       -2.2523
  19       -2.2248
  20       -2.2247
  21       -2.0774
  22       -2.0774
  23       -2.0774
  24       -2.0774
  25       -2.0022
  26       -2.0022
  27       -2.0022
  28       -2.0022
  29       -1.9747
  30       -1.9747
  31       -1.9194
  32       -1.9194
  33       -1.9194
  34       -1.9194
  35       -1.7531
  36       -1.7531
  37       -1.7531
  38       -1.7531
  39       -1.6993
  40       -1.6993
  41       -1.6993
  42       -1.6993
  43       -1.6553
  44       -1.6236
  45       -1.6236
  46       -1.6236
  47       -1.6235
  48       -1.4440
  49       -1.4440
  50       -1.4440
  51       -1.4440
  52       -1.4098
  53       -1.4088
  54       -1.4088
  55       -1.4087
  56       -1.4049
  57       -1.4049
  58       -1.4049
  59       -1.4039
  60       -1.3406
  61       -1.3406
  62       -1.3406
  63       -1.3405
  64       -1.2818
  65       -1.2818
  66       -1.2818
  67       -1.2818
  68       -1.1900
  69       -1.1764
  70       -1.1764
  71       -1.1764
  72       -1.1764
  73       -1.1596
  74       -1.1596
  75       -1.1596
  76       -1.1595
  77       -1.0826
  78       -1.0826
  79       -1.0826
  80       -1.0826
  81       -1.0585
  82       -1.0585
  83       -0.7300
  84       -0.7300
  85       -0.6980
  86       -0.6980
  87       -0.6980
  88       -0.6980
  89       -0.6522
  90       -0.6521
  91       -0.6521
  92       -0.6521
  93       -0.6310
  94       -0.6310
  95       -0.6310
  96       -0.6310
  97       -0.5760
  98       -0.5760
  99       -0.3913
 100       -0.2745
 101       -0.2744
 102       -0.2744
 103       -0.2744
 104       -0.2344
 105       -0.2344
 106       -0.2344
 107       -0.2344
 108       -0.1977
 109       -0.1977
 110       -0.1977
 111       -0.1976
 112       -0.1543
 113       -0.1543
 114       -0.1543
 115       -0.1543
 116       -0.0874
 117       -0.0155
 118       -0.0155
 119       -0.0155
 120       -0.0155
 121        0.0100
 122        0.1442
 123        0.1442
 124        0.1794
 125        0.1794
 126        0.1794
 127        0.1795
 128        0.2132
 129        0.2134
 130        0.2134
 131        0.2134
 132        0.2225
 133        0.2320
 134        0.2320
 135        0.2716
 136        0.2716
 137        0.2716
 138        0.2716
 139        0.5327
 140        0.5642
 141        0.5642
 142        0.5642
 143        0.5642
 144        0.6274
 145        0.6274
 146        0.6274
 147        0.6274
 148        0.7010
 149        0.7010
 150        0.7275
 151        0.7275
 152        0.7450
 153        0.7450
 154        0.7450
 155        0.7450
 156        0.7602
 157        0.9273
 158        0.9273
 159        0.9273
 160        0.9273
 161        0.9352
 162        0.9352
 163        1.0463
 164        1.0466
 165        1.0474
 166        1.0478
 167        1.0726
 168        2.2302
 169        2.2302
 170        2.2302
 171        2.2302
 172        3.3214
 173        3.3215
 174        3.3216
 175        3.3216
 176        3.3432
 177        3.3432
 178        3.3432
 179        3.3433
 180        4.4690
 181        4.6841
 182        4.6841
 183        4.6841
 184        4.6841
 185        5.8845
 186        5.8845
 187        8.1457
 188        8.1457
 189        8.1457
 190        8.1457
 191        8.3426
 192        8.3426
 193        8.3427
 194        8.3427
 195        8.3950
 196        8.3950
 197       10.2215
 198       10.2215
 199       10.2215
 200       10.2215
 201       10.8926
 202       10.8926
 203       11.1054
 204       11.1054
 205       11.2851
 206       11.2851
 207       11.2851
 208       11.2852
 209       11.5605
 210       11.5611
 211       11.7057
 212       11.7057
 
  0.3333333E+00  0.0000000E+00  0.0000000E+00  0.1157407E-02
   1       -3.8914
   2       -3.0942
   3       -2.7410
   4       -2.7052
   5       -2.7052
   6       -2.6527
   7       -2.6527
   8       -2.6527
   9       -2.6527
  10       -2.6180
  11       -2.5663
  12       -2.5663
  13       -2.4486
  14       -2.3498
  15       -2.3214
  16       -2.3213
  17       -2.2205
  18       -2.2205
  19       -2.2205
  20       -2.2205
  21       -2.1700
  22       -2.1700
  23       -2.1700
  24       -2.1699
  25       -2.1281
  26       -2.1281
  27       -1.9530
  28       -1.9529
  29       -1.9529
  30       -1.9529
  31       -1.8850
  32       -1.8850
  33       -1.8850
  34       -1.8849
  35       -1.7704
  36       -1.7703
  37       -1.7703
  38       -1.7703
  39       -1.7566
  40       -1.7566
  41       -1.7566
  42       -1.7566
  43       -1.6811
  44       -1.6811
  45       -1.6811
  46       -1.6810
  47       -1.5573
  48       -1.4578
  49       -1.4578
  50       -1.4578
  51       -1.4578
  52       -1.4047
  53       -1.4040
  54       -1.4040
  55       -1.4040
  56       -1.3968
  57       -1.3968
  58       -1.3968
  59       -1.3961
  60       -1.3639
  61       -1.3639
  62       -1.3639
  63       -1.3638
  64       -1.3091
  65       -1.3091
  66       -1.3090
  67       -1.3090
  68       -1.2414
  69       -1.1977
  70       -1.1977
  71       -1.1977
  72       -1.1977
  73       -1.1643
  74       -1.1643
  75       -1.1643
  76       -1.1642
  77       -1.0339
  78       -1.0339
  79       -1.0339
  80       -1.0339
  81       -1.0097
  82       -1.0097
  83       -0.7991
  84       -0.7991
  85       -0.7991
  86       -0.7991
  87       -0.7262
  88       -0.7262
  89       -0.7262
  90       -0.7262
  91       -0.6859
  92       -0.6859
  93       -0.4865
  94       -0.4865
  95       -0.4865
  96       -0.4865
  97       -0.4805
  98       -0.4805
  99       -0.3688
 100       -0.1993
 101       -0.1993
 102       -0.1993
 103       -0.1993
 104       -0.1781
 105       -0.1780
 106       -0.1780
 107       -0.1780
 108       -0.1769
 109       -0.1769
 110       -0.1769
 111       -0.1769
 112       -0.1658
 113       -0.1658
 114       -0.1658
 115       -0.1656
 116       -0.1367
 117       -0.0238
 118       -0.0238
 119       -0.0238
 120       -0.0238
 121        0.0324
 122        0.1437
 123        0.1437
 124        0.1437
 125        0.1438
 126        0.1757
 127        0.2427
 128        0.2427
 129        0.3202
 130        0.3202
 131        0.3202
 132        0.3203
 133        0.3730
 134        0.3730
 135        0.3857
 136        0.3859
 137        0.3859
 138        0.3860
 139        0.3867
 140        0.3868
 141        0.3868
 142        0.3870
 143        0.5173
 144        0.5173
 145        0.5814
 146        0.6325
 147        0.6325
 148        0.6844
 149        0.6845
 150        0.6845
 151        0.6845
 152        0.7355
 153        0.8409
 154        0.8409
 155        0.8410
 156        0.8410
 157        0.8462
 158        0.8463
 159        0.8463
 160        0.8463
 161        0.8530
 162        0.8530
 163        1.0463
 164        1.0468
 165        1.0473
 166        1.0478
 167        1.5851
 168        1.9178
 169        1.9178
 170        1.9178
 171        1.9178
 172        3.3262
 173        3.3263
 174        3.3264
 175        3.3264
 176        3.3425
 177        3.3425
 178        3.3426
 179        3.3427
 180        3.9074
 181        5.2128
 182        5.2128
 183        5.2129
 184        5.2129
 185        6.1996
 186        6.1996
 187        7.6660
 188        7.6660
 189        7.6660
 190        7.6660
 191        7.9020
 192        7.9020
 193        8.5051
 194        8.5051
 195        8.5051
 196        8.5051
 197       10.4218
 198       10.4218
 199       10.4218
 200       10.4218
 201       10.6280
 202       10.6280
 203       10.6280
 204       10.6280
 205       10.9107
 206       10.9107
 207       11.0534
 208       11.0534
 209       11.6630
 210       11.6631
 211       11.6635
 212       11.6727
 
  0.4166667E+00  0.0000000E+00  0.0000000E+00  0.1157407E-02
   1       -3.7303
   2       -3.3247
   3       -2.6767
   4       -2.6220
   5       -2.6220
   6       -2.5692
   7       -2.5692
   8       -2.5692
   9       -2.5691
  10       -2.5656
  11       -2.5257
  12       -2.4836
  13       -2.4836
  14       -2.4306
  15       -2.4247
  16       -2.4247
  17       -2.3517
  18       -2.3517
  19       -2.3517
  20       -2.3517
  21       -2.2643
  22       -2.2643
  23       -2.0705
  24       -2.0705
  25       -2.0705
  26       -2.0705
  27       -1.8973
  28       -1.8972
  29       -1.8972
  30       -1.8972
  31       -1.8502
  32       -1.8502
  33       -1.8502
  34       -1.8502
  35       -1.8423
  36       -1.8423
  37       -1.8423
  38       -1.8423
  39       -1.7988
  40       -1.7988
  41       -1.7988
  42       -1.7988
  43       -1.7384
  44       -1.7383
  45       -1.7383
  46       -1.7383
  47       -1.4651
  48       -1.4651
  49       -1.4651
  50       -1.4651
  51       -1.4651
  52       -1.4246
  53       -1.4246
  54       -1.4246
  55       -1.4246
  56       -1.4002
  57       -1.3993
  58       -1.3993
  59       -1.3993
  60       -1.3942
  61       -1.3942
  62       -1.3942
  63       -1.3933
  64       -1.3054
  65       -1.2794
  66       -1.2794
  67       -1.2794
  68       -1.2794
  69       -1.2228
  70       -1.2228
  71       -1.2228
  72       -1.2228
  73       -1.1203
  74       -1.1203
  75       -1.1203
  76       -1.1202
  77       -0.9727
  78       -0.9726
  79       -0.9726
  80       -0.9726
  81       -0.9476
  82       -0.9476
  83       -0.9291
  84       -0.9290
  85       -0.9290
  86       -0.9290
  87       -0.8169
  88       -0.8169
  89       -0.8169
  90       -0.8169
  91       -0.7850
  92       -0.7850
  93       -0.3196
  94       -0.2633
  95       -0.2633
  96       -0.2633
  97       -0.2633
  98       -0.2256
  99       -0.2256
 100       -0.1997
 101       -0.1997
 102       -0.1997
 103       -0.1996
 104       -0.1953
 105       -0.1905
 106       -0.1904
 107       -0.1904
 108       -0.1904
 109       -0.1101
 110       -0.1100
 111       -0.1100
 112       -0.1100
 113       -0.0823
 114       -0.0823
 115       -0.0822
 116       -0.0822
 117       -0.0405
 118       -0.0405
 119       -0.0405
 120       -0.0405
 121        0.0607
 122        0.0831
 123        0.0831
 124        0.0832
 125        0.0832
 126        0.1329
 127        0.1818
 128        0.1818
 129        0.1818
 130        0.1818
 131        0.2809
 132        0.2809
 133        0.3479
 134        0.3479
 135        0.4245
 136        0.4245
 137        0.4245
 138        0.4245
 139        0.5062
 140        0.5062
 141        0.5062
 142        0.5062
 143        0.5090
 144        0.5090
 145        0.5483
 146        0.5483
 147        0.6094
 148        0.6094
 149        0.6094
 150        0.6094
 151        0.6270
 152        0.7047
 153        0.7386
 154        0.7386
 155        0.7386
 156        0.7386
 157        0.7523
 158        0.7523
 159        1.0464
 160        1.0469
 161        1.0472
 162        1.0478
 163        1.0890
 164        1.0890
 165        1.0890
 166        1.0890
 167        1.6248
 168        1.6248
 169        1.6248
 170        1.6248
 171        2.1382
 172        3.3148
 173        3.3314
 174        3.3314
 175        3.3315
 176        3.3315
 177        3.3402
 178        3.3402
 179        3.3403
 180        3.3407
 181        5.7777
 182        5.7777
 183        5.7777
 184        5.7777
 185        6.5699
 186        6.5699
 187        7.0080
 188        7.0080
 189        7.0080
 190        7.0080
 191        7.4295
 192        7.4295
 193        8.9435
 194        8.9435
 195        8.9435
 196        8.9435
 197       10.0138
 198       10.0138
 199       10.0138
 200       10.0138
 201       10.6711
 202       10.6711
 203       10.6711
 204       10.6711
 205       10.9352
 206       10.9352
 207       11.0066
 208       11.0066
 209       11.2966
 210       11.2966
 211       11.2966
 212       11.2966
 
  0.5000000E+00  0.0000000E+00  0.0000000E+00  0.5787037E-03
   1       -3.5409
   2       -3.5383
   3       -2.6047
   4       -2.6025
   5       -2.5285
   6       -2.5276
   7       -2.5262
   8       -2.5254
   9       -2.5040
  10       -2.5017
  11       -2.4698
  12       -2.4698
  13       -2.4696
  14       -2.4694
  15       -2.4675
  16       -2.4673
  17       -2.4671
  18       -2.4671
  19       -2.3841
  20       -2.3841
  21       -2.3817
  22       -2.3817
  23       -1.9626
  24       -1.9619
  25       -1.9607
  26       -1.9607
  27       -1.9601
  28       -1.9601
  29       -1.9590
  30       -1.9582
  31       -1.8458
  32       -1.8428
  33       -1.8428
  34       -1.8428
  35       -1.8426
  36       -1.8426
  37       -1.8426
  38       -1.8397
  39       -1.7944
  40       -1.7940
  41       -1.7940
  42       -1.7931
  43       -1.7925
  44       -1.7916
  45       -1.7916
  46       -1.7913
  47       -1.4585
  48       -1.4578
  49       -1.4578
  50       -1.4572
  51       -1.4571
  52       -1.4566
  53       -1.4566
  54       -1.4558
  55       -1.3980
  56       -1.3961
  57       -1.3961
  58       -1.3958
  59       -1.3953
  60       -1.3950
  61       -1.3950
  62       -1.3934
  63       -1.3808
  64       -1.3799
  65       -1.2511
  66       -1.2508
  67       -1.2507
  68       -1.2507
  69       -1.2502
  70       -1.2502
  71       -1.2501
  72       -1.2498
  73       -1.0396
  74       -1.0394
  75       -1.0394
  76       -1.0383
  77       -1.0383
  78       -1.0372
  79       -1.0372
  80       -1.0371
  81       -0.9017
  82       -0.9012
  83       -0.9012
  84       -0.9000
  85       -0.8995
  86       -0.8983
  87       -0.8983
  88       -0.8977
  89       -0.8735
  90       -0.8735
  91       -0.8713
  92       -0.8713
  93       -0.2591
  94       -0.2578
  95       -0.1978
  96       -0.1978
  97       -0.1976
  98       -0.1974
  99       -0.1972
 100       -0.1971
 101       -0.1968
 102       -0.1968
 103       -0.0695
 104       -0.0693
 105       -0.0687
 106       -0.0687
 107       -0.0684
 108       -0.0684
 109       -0.0677
 110       -0.0676
 111       -0.0389
 112       -0.0382
 113       -0.0382
 114       -0.0379
 115       -0.0377
 116       -0.0373
 117       -0.0373
 118       -0.0366
 119        0.0049
 120        0.0058
 121        0.0058
 122        0.0061
 123        0.0065
 124        0.0067
 125        0.0067
 126        0.0077
 127        0.0296
 128        0.0296
 129        0.0311
 130        0.0311
 131        0.0934
 132        0.0952
 133        0.4517
 134        0.4518
 135        0.4520
 136        0.4521
 137        0.5208
 138        0.5213
 139        0.5213
 140        0.5215
 141        0.5223
 142        0.5225
 143        0.5225
 144        0.5231
 145        0.6238
 146        0.6238
 147        0.6249
 148        0.6250
 149        0.6255
 150        0.6256
 151        0.6266
 152        0.6266
 153        0.6362
 154        0.6362
 155        0.6370
 156        0.6370
 157        0.6681
 158        0.6684
 159        1.0464
 160        1.0470
 161        1.0471
 162        1.0477
 163        1.3479
 164        1.3483
 165        1.3488
 166        1.3488
 167        1.3490
 168        1.3490
 169        1.3494
 170        1.3498
 171        2.7188
 172        2.7200
 173        3.3346
 174        3.3355
 175        3.3360
 176        3.3360
 177        3.3368
 178        3.3368
 179        3.3373
 180        3.3382
 181        6.3747
 182        6.3750
 183        6.3750
 184        6.3766
 185        6.3775
 186        6.3790
 187        6.3790
 188        6.3794
 189        6.9817
 190        6.9817
 191        6.9843
 192        6.9843
 193        9.4475
 194        9.4475
 195        9.4475
 196        9.4490
 197        9.4501
 198        9.4516
 199        9.4517
 200        9.4517
 201       10.9628
 202       10.9628
 203       10.9638
 204       10.9641
 205       10.9647
 206       10.9650
 207       10.9660
 208       10.9660
 209       10.9666
 210       10.9670
 211       10.9671
 212       10.9675
 
  0.0000000E+00  0.8333333E-01  0.0000000E+00  0.2314815E-02
   1       -4.1685
   2       -2.8563
   3       -2.8540
   4       -2.8540
   5       -2.7942
   6       -2.7942
   7       -2.7942
   8       -2.7941
   9       -2.7076
  10       -2.7044
  11       -2.7044
  12       -2.4739
  13       -2.3528
  14       -2.3513
  15       -2.3513
  16       -2.3500
  17       -2.3211
  18       -2.0908
  19       -2.0907
  20       -2.0679
  21       -2.0650
  22       -2.0637
  23       -2.0636
  24       -2.0623
  25       -1.9618
  26       -1.9602
  27       -1.9601
  28       -1.9586
  29       -1.8613
  30       -1.7858
  31       -1.7858
  32       -1.7858
  33       -1.7858
  34       -1.7269
  35       -1.7257
  36       -1.7257
  37       -1.7245
  38       -1.6931
  39       -1.6918
  40       -1.6918
  41       -1.6905
  42       -1.6180
  43       -1.6180
  44       -1.5206
  45       -1.5191
  46       -1.5191
  47       -1.5176
  48       -1.4459
  49       -1.4441
  50       -1.4441
  51       -1.4427
  52       -1.4342
  53       -1.4341
  54       -1.4327
  55       -1.4326
  56       -1.4211
  57       -1.4198
  58       -1.4196