 vasp.4.6.28 25Jul05 complex 
 executed on             LinuxIFC date 2017.01.10  03:59:07
 running on    4 nodes
 distr:  one band on    1 nodes,    4 groups


--------------------------------------------------------------------------------------------------------


 INCAR:
 POTCAR:   PAW_PBE Ag 06Sep2000                   
 POTCAR:   PAW_PBE Ag 06Sep2000                   
   VRHFIN =Ag : s1 d10                                                          
   LEXCH  = PE                                                                  
   EATOM  =  1037.4134 eV,   76.2477 Ry                                         
                                                                                
   TITEL  = PAW_PBE Ag 06Sep2000                                                
   LULTRA =        F    use ultrasoft PP ?                                      
   IUNSCR =        1    unscreen: 0-lin 1-nonlin 2-no                           
   RPACOR =    2.000    partial core radius                                     
   POMASS =  107.868; ZVAL   =   11.000    mass and valenz                      
   RCORE  =    2.400    outmost cutoff radius                                   
   RWIGS  =    2.840; RWIGS  =    1.503    wigner-seitz radius (au A)           
   ENMAX  =  249.846; ENMIN  =  187.385 eV                                      
   RCLOC  =    1.962    cutoff for local pot                                    
   LCOR   =        T    correct aug charges                                     
   LPAW   =        T    paw PP                                                  
   EAUG   =  412.496                                                            
   DEXC   =    -.047                                                            
   RMAX   =    2.917    core radius for proj-oper                               
   RAUG   =    1.300    factor for augmentation sphere                          
   RDEP   =    2.416    radius for radial grids                                 
   QCUT   =   -4.285; QGAM   =    8.570    optimization parameters              
                                                                                
   Description                                                                  
     l     E      TYP  RCUT    TYP  RCUT                                        
     2   .000     23  2.400                                                     
     2   .000     23  2.400                                                     
     0   .000     23  2.400                                                     
     0   .000     23  2.400                                                     
     1  -.200     23  2.400                                                     
     1  1.500     23  2.400                                                     
     3   .000      7   .000                                                     
  local pseudopotential read in
  partial core-charges read in
  atomic valenz-charges read in
  non local Contribution for L=           2  read in
    real space projection operators read in
  non local Contribution for L=           2  read in
    real space projection operators read in
  non local Contribution for L=           0  read in
    real space projection operators read in
  non local Contribution for L=           0  read in
    real space projection operators read in
  non local Contribution for L=           1  read in
    real space projection operators read in
  non local Contribution for L=           1  read in
    real space projection operators read in
    PAW grid and wavefunctions read in
 
   number of l-projection  operators is LMAX  =           6
   number of lm-projection operators is LMMAX =          18
 

 ----------------------------------------------------------------------------- 
|                                                                             |
|  ADVICE TO THIS USER RUNNING 'VASP/VAMP'   (HEAR YOUR MASTER'S VOICE ...):  |
|                                                                             |
|      You have a (more or less) 'large supercell' and for larger cells       |
|      it might be more efficient to use real space projection operators      |
|      So try LREAL= Auto  in the INCAR   file.                               |
|      Mind: If you want to do an extremely accurate calculations keep the    |
|      reciprocal projection scheme          (i.e. LREAL=.FALSE.)             |
|                                                                             |
 ----------------------------------------------------------------------------- 

 PAW_PBE Ag 06Sep2000                   :
 energy of atom  1       EATOM=-1037.4134
 kinetic energy error for atom=    0.0010 (will be added to EATOM!!)
 
 EXHCAR: internal setup
 exchange correlation table for  LEXCH =        8
   RHO(1)=    0.500       N(1)  =     2000
   RHO(2)=  100.500       N(2)  =     4000
 
 POSCAR: Ag                                      
  positions in direct lattice
  No initial velocities read in
 


--------------------------------------------------------------------------------------------------------


 ion  position               nearest neighbor table
   1  0.001  0.000  0.000-   9 2.85  11 2.85  17 2.85  21 2.85  25 2.86  27 2.86  29 2.86  31 2.86
                            10 2.86  18 2.86  12 2.86  22 2.86
   2  0.500  0.000  0.000-   9 2.86  10 2.86  11 2.86  12 2.86  17 2.86  18 2.86  21 2.86  22 2.86
                            26 2.86  28 2.86  30 2.86  32 2.86
   3  0.000  0.500  0.000-   9 2.86  10 2.86  11 2.86  12 2.86  19 2.86  20 2.86  23 2.86  24 2.86
                            25 2.86  27 2.86  29 2.86  31 2.86
   4  0.500  0.500  0.000-   9 2.86  10 2.86  11 2.86  12 2.86  19 2.86  20 2.86  23 2.86  24 2.86
                            26 2.86  28 2.86  30 2.86  32 2.86
   5  0.000  0.000  0.500-  13 2.86  14 2.86  15 2.86  16 2.86  17 2.86  18 2.86  21 2.86  22 2.86
                            25 2.86  27 2.86  29 2.86  31 2.86
   6  0.500  0.000  0.500-  13 2.86  14 2.86  15 2.86  16 2.86  17 2.86  18 2.86  21 2.86  22 2.86
                            26 2.86  28 2.86  30 2.86  32 2.86
   7  0.000  0.500  0.500-  13 2.86  14 2.86  15 2.86  16 2.86  19 2.86  20 2.86  23 2.86  24 2.86
                            25 2.86  27 2.86  29 2.86  31 2.86
   8  0.500  0.500  0.500-  13 2.86  14 2.86  15 2.86  16 2.86  19 2.86  20 2.86  23 2.86  24 2.86
                            26 2.86  28 2.86  30 2.86  32 2.86
   9  0.250  0.250  0.000-   1 2.85   2 2.86   3 2.86   4 2.86  17 2.86  19 2.86  21 2.86  23 2.86
                            25 2.86  26 2.86  29 2.86  30 2.86
  10  0.750  0.250  0.000-   2 2.86   3 2.86   4 2.86  18 2.86  20 2.86  22 2.86  24 2.86  25 2.86
                            26 2.86  29 2.86  30 2.86   1 2.86
  11  0.250  0.750  0.000-   1 2.85   2 2.86   3 2.86   4 2.86  17 2.86  19 2.86  21 2.86  23 2.86
                            27 2.86  28 2.86  31 2.86  32 2.86
  12  0.750  0.750  0.000-   2 2.86   3 2.86   4 2.86  18 2.86  20 2.86  22 2.86  24 2.86  27 2.86
                            28 2.86  31 2.86  32 2.86   1 2.86
  13  0.250  0.250  0.500-   5 2.86   6 2.86   7 2.86   8 2.86  17 2.86  19 2.86  21 2.86  23 2.86
                            25 2.86  26 2.86  29 2.86  30 2.86
  14  0.750  0.250  0.500-   5 2.86   6 2.86   7 2.86   8 2.86  18 2.86  20 2.86  22 2.86  24 2.86
                            25 2.86  26 2.86  29 2.86  30 2.86
  15  0.250  0.750  0.500-   5 2.86   6 2.86   7 2.86   8 2.86  17 2.86  19 2.86  21 2.86  23 2.86
                            27 2.86  28 2.86  31 2.86  32 2.86
  16  0.750  0.750  0.500-   5 2.86   6 2.86   7 2.86   8 2.86  18 2.86  20 2.86  22 2.86  24 2.86
                            27 2.86  28 2.86  31 2.86  32 2.86
  17  0.250  0.000  0.250-   1 2.85   2 2.86   5 2.86   6 2.86   9 2.86  11 2.86  13 2.86  15 2.86
                            25 2.86  26 2.86  27 2.86  28 2.86
  18  0.750  0.000  0.250-   2 2.86   5 2.86   6 2.86  10 2.86  12 2.86  14 2.86  16 2.86  25 2.86
                            26 2.86  27 2.86  28 2.86   1 2.86
  19  0.250  0.500  0.250-   3 2.86   4 2.86   7 2.86   8 2.86   9 2.86  11 2.86  13 2.86  15 2.86
                            25 2.86  26 2.86  27 2.86  28 2.86
  20  0.750  0.500  0.250-   3 2.86   4 2.86   7 2.86   8 2.86  10 2.86  12 2.86  14 2.86  16 2.86
                            25 2.86  26 2.86  27 2.86  28 2.86
  21  0.250  0.000  0.750-   1 2.85   2 2.86   5 2.86   6 2.86   9 2.86  11 2.86  13 2.86  15 2.86
                            29 2.86  30 2.86  31 2.86  32 2.86
  22  0.750  0.000  0.750-   2 2.86   5 2.86   6 2.86  10 2.86  12 2.86  14 2.86  16 2.86  29 2.86
                            30 2.86  31 2.86  32 2.86   1 2.86
  23  0.250  0.500  0.750-   3 2.86   4 2.86   7 2.86   8 2.86   9 2.86  11 2.86  13 2.86  15 2.86
                            29 2.86  30 2.86  31 2.86  32 2.86
  24  0.750  0.500  0.750-   3 2.86   4 2.86   7 2.86   8 2.86  10 2.86  12 2.86  14 2.86  16 2.86
                            29 2.86  30 2.86  31 2.86  32 2.86
  25  0.000  0.250  0.250-   3 2.86   5 2.86   7 2.86   9 2.86  10 2.86  13 2.86  14 2.86  17 2.86
                            18 2.86  19 2.86  20 2.86   1 2.86
  26  0.500  0.250  0.250-   2 2.86   4 2.86   6 2.86   8 2.86   9 2.86  10 2.86  13 2.86  14 2.86
                            17 2.86  18 2.86  19 2.86  20 2.86
  27  0.000  0.750  0.250-   3 2.86   5 2.86   7 2.86  11 2.86  12 2.86  15 2.86  16 2.86  17 2.86
                            18 2.86  19 2.86  20 2.86   1 2.86
  28  0.500  0.750  0.250-   2 2.86   4 2.86   6 2.86   8 2.86  11 2.86  12 2.86  15 2.86  16 2.86
                            17 2.86  18 2.86  19 2.86  20 2.86
  29  0.000  0.250  0.750-   3 2.86   5 2.86   7 2.86   9 2.86  10 2.86  13 2.86  14 2.86  21 2.86
                            22 2.86  23 2.86  24 2.86   1 2.86
  30  0.500  0.250  0.750-   2 2.86   4 2.86   6 2.86   8 2.86   9 2.86  10 2.86  13 2.86  14 2.86
                            21 2.86  22 2.86  23 2.86  24 2.86
  31  0.000  0.750  0.750-   3 2.86   5 2.86   7 2.86  11 2.86  12 2.86  15 2.86  16 2.86  21 2.86
                            22 2.86  23 2.86  24 2.86   1 2.86
  32  0.500  0.750  0.750-   2 2.86   4 2.86   6 2.86   8 2.86  11 2.86  12 2.86  15 2.86  16 2.86
                            21 2.86  22 2.86  23 2.86  24 2.86
 
  LATTYP: Found a simple cubic cell.
 ALAT       =     8.0766560763
  
  Lattice vectors:
  
 A1 = (   8.0766560763,   0.0000000000,   0.0000000000)
 A2 = (   0.0000000000,   8.0766560763,   0.0000000000)
 A3 = (   0.0000000000,   0.0000000000,   8.0766560763)
 Subroutine PRICEL returns:
 Original cell was already a primitive cell.
 

Analysis of symmetry for initial positions (statically):

 Routine SETGRP: Setting up the symmetry group for a 
 simple cubic supercell.


 Subroutine GETGRP returns: Found  8 space group operations
 (whereof  8 operations were pure point group operations)
 out of a pool of 48 trial point group operations.


The static configuration has the point symmetry C_4v.

Analysis of symmetry for dynamics (positions and initial velocities):

 Subroutine DYNSYM returns: Found  8 space group operations
 (whereof  8 operations were pure point group operations)
 out of a pool of  8 trial space group operations
 (whereof  8 operations were pure point group operations)
 and found also     1 'primitive' translations


The dynamic configuration has the point symmetry C_4v.
 
 
 KPOINTS: Automatic mesh                          

Automatic generation of k-mesh.
 
 Subroutine IBZKPT returns following result:
 ===========================================
 
 Found    196 irreducible k-points:
 
 Following reciprocal coordinates:
            Coordinates               Weight
  0.000000  0.000000  0.000000      1.000000
  0.083333  0.000000  0.000000      2.000000
  0.166667  0.000000  0.000000      2.000000
  0.250000  0.000000  0.000000      2.000000
  0.333333  0.000000  0.000000      2.000000
  0.416667  0.000000  0.000000      2.000000
  0.500000  0.000000  0.000000      1.000000
  0.000000  0.083333  0.000000      4.000000
  0.083333  0.083333  0.000000      8.000000
  0.166667  0.083333  0.000000      8.000000
  0.250000  0.083333  0.000000      8.000000
  0.333333  0.083333  0.000000      8.000000
  0.416667  0.083333  0.000000      8.000000
  0.500000  0.083333  0.000000      4.000000
  0.000000  0.166667  0.000000      4.000000
  0.083333  0.166667  0.000000      8.000000
  0.166667  0.166667  0.000000      8.000000
  0.250000  0.166667  0.000000      8.000000
  0.333333  0.166667  0.000000      8.000000
  0.416667  0.166667  0.000000      8.000000
  0.500000  0.166667  0.000000      4.000000
  0.000000  0.250000  0.000000      4.000000
  0.083333  0.250000  0.000000      8.000000
  0.166667  0.250000  0.000000      8.000000
  0.250000  0.250000  0.000000      8.000000
  0.333333  0.250000  0.000000      8.000000
  0.416667  0.250000  0.000000      8.000000
  0.500000  0.250000  0.000000      4.000000
  0.000000  0.333333  0.000000      4.000000
  0.083333  0.333333  0.000000      8.000000
  0.166667  0.333333  0.000000      8.000000
  0.250000  0.333333  0.000000      8.000000
  0.333333  0.333333  0.000000      8.000000
  0.416667  0.333333  0.000000      8.000000
  0.500000  0.333333  0.000000      4.000000
  0.000000  0.416667  0.000000      4.000000
  0.083333  0.416667  0.000000      8.000000
  0.166667  0.416667  0.000000      8.000000
  0.250000  0.416667  0.000000      8.000000
  0.333333  0.416667  0.000000      8.000000
  0.416667  0.416667  0.000000      8.000000
  0.500000  0.416667  0.000000      4.000000
  0.000000  0.500000  0.000000      2.000000
  0.083333  0.500000  0.000000      4.000000
  0.166667  0.500000  0.000000      4.000000
  0.250000  0.500000  0.000000      4.000000
  0.333333  0.500000  0.000000      4.000000
  0.416667  0.500000  0.000000      4.000000
  0.500000  0.500000  0.000000      2.000000
  0.000000  0.083333  0.083333      4.000000
  0.083333  0.083333  0.083333      8.000000
  0.166667  0.083333  0.083333      8.000000
  0.250000  0.083333  0.083333      8.000000
  0.333333  0.083333  0.083333      8.000000
  0.416667  0.083333  0.083333      8.000000
  0.500000  0.083333  0.083333      4.000000
  0.000000  0.166667  0.083333      8.000000
  0.083333  0.166667  0.083333     16.000000
  0.166667  0.166667  0.083333     16.000000
  0.250000  0.166667  0.083333     16.000000
  0.333333  0.166667  0.083333     16.000000
  0.416667  0.166667  0.083333     16.000000
  0.500000  0.166667  0.083333      8.000000
  0.000000  0.250000  0.083333      8.000000
  0.083333  0.250000  0.083333     16.000000
  0.166667  0.250000  0.083333     16.000000
  0.250000  0.250000  0.083333     16.000000
  0.333333  0.250000  0.083333     16.000000
  0.416667  0.250000  0.083333     16.000000
  0.500000  0.250000  0.083333      8.000000
  0.000000  0.333333  0.083333      8.000000
  0.083333  0.333333  0.083333     16.000000
  0.166667  0.333333  0.083333     16.000000
  0.250000  0.333333  0.083333     16.000000
  0.333333  0.333333  0.083333     16.000000
  0.416667  0.333333  0.083333     16.000000
  0.500000  0.333333  0.083333      8.000000
  0.000000  0.416667  0.083333      8.000000
  0.083333  0.416667  0.083333     16.000000
  0.166667  0.416667  0.083333     16.000000
  0.250000  0.416667  0.083333     16.000000
  0.333333  0.416667  0.083333     16.000000
  0.416667  0.416667  0.083333     16.000000
  0.500000  0.416667  0.083333      8.000000
  0.000000  0.500000  0.083333      4.000000
  0.083333  0.500000  0.083333      8.000000
  0.166667  0.500000  0.083333      8.000000
  0.250000  0.500000  0.083333      8.000000
  0.333333  0.500000  0.083333      8.000000
  0.416667  0.500000  0.083333      8.000000
  0.500000  0.500000  0.083333      4.000000
  0.000000  0.166667  0.166667      4.000000
  0.083333  0.166667  0.166667      8.000000
  0.166667  0.166667  0.166667      8.000000
  0.250000  0.166667  0.166667      8.000000
  0.333333  0.166667  0.166667      8.000000
  0.416667  0.166667  0.166667      8.000000
  0.500000  0.166667  0.166667      4.000000
  0.000000  0.250000  0.166667      8.000000
  0.083333  0.250000  0.166667     16.000000
  0.166667  0.250000  0.166667     16.000000
  0.250000  0.250000  0.166667     16.000000
  0.333333  0.250000  0.166667     16.000000
  0.416667  0.250000  0.166667     16.000000
  0.500000  0.250000  0.166667      8.000000
  0.000000  0.333333  0.166667      8.000000
  0.083333  0.333333  0.166667     16.000000
  0.166667  0.333333  0.166667     16.000000
  0.250000  0.333333  0.166667     16.000000
  0.333333  0.333333  0.166667     16.000000
  0.416667  0.333333  0.166667     16.000000
  0.500000  0.333333  0.166667      8.000000
  0.000000  0.416667  0.166667      8.000000
  0.083333  0.416667  0.166667     16.000000
  0.166667  0.416667  0.166667     16.000000
  0.250000  0.416667  0.166667     16.000000
  0.333333  0.416667  0.166667     16.000000
  0.416667  0.416667  0.166667     16.000000
  0.500000  0.416667  0.166667      8.000000
  0.000000  0.500000  0.166667      4.000000
  0.083333  0.500000  0.166667      8.000000
  0.166667  0.500000  0.166667      8.000000
  0.250000  0.500000  0.166667      8.000000
  0.333333  0.500000  0.166667      8.000000
  0.416667  0.500000  0.166667      8.000000
  0.500000  0.500000  0.166667      4.000000
  0.000000  0.250000  0.250000      4.000000
  0.083333  0.250000  0.250000      8.000000
  0.166667  0.250000  0.250000      8.000000
  0.250000  0.250000  0.250000      8.000000
  0.333333  0.250000  0.250000      8.000000
  0.416667  0.250000  0.250000      8.000000
  0.500000  0.250000  0.250000      4.000000
  0.000000  0.333333  0.250000      8.000000
  0.083333  0.333333  0.250000     16.000000
  0.166667  0.333333  0.250000     16.000000
  0.250000  0.333333  0.250000     16.000000
  0.333333  0.333333  0.250000     16.000000
  0.416667  0.333333  0.250000     16.000000
  0.500000  0.333333  0.250000      8.000000
  0.000000  0.416667  0.250000      8.000000
  0.083333  0.416667  0.250000     16.000000
  0.166667  0.416667  0.250000     16.000000
  0.250000  0.416667  0.250000     16.000000
  0.333333  0.416667  0.250000     16.000000
  0.416667  0.416667  0.250000     16.000000
  0.500000  0.416667  0.250000      8.000000
  0.000000  0.500000  0.250000      4.000000
  0.083333  0.500000  0.250000      8.000000
  0.166667  0.500000  0.250000      8.000000
  0.250000  0.500000  0.250000      8.000000
  0.333333  0.500000  0.250000      8.000000
  0.416667  0.500000  0.250000      8.000000
  0.500000  0.500000  0.250000      4.000000
  0.000000  0.333333  0.333333      4.000000
  0.083333  0.333333  0.333333      8.000000
  0.166667  0.333333  0.333333      8.000000
  0.250000  0.333333  0.333333      8.000000
  0.333333  0.333333  0.333333      8.000000
  0.416667  0.333333  0.333333      8.000000
  0.500000  0.333333  0.333333      4.000000
  0.000000  0.416667  0.333333      8.000000
  0.083333  0.416667  0.333333     16.000000
  0.166667  0.416667  0.333333     16.000000
  0.250000  0.416667  0.333333     16.000000
  0.333333  0.416667  0.333333     16.000000
  0.416667  0.416667  0.333333     16.000000
  0.500000  0.416667  0.333333      8.000000
  0.000000  0.500000  0.333333      4.000000
  0.083333  0.500000  0.333333      8.000000
  0.166667  0.500000  0.333333      8.000000
  0.250000  0.500000  0.333333      8.000000
  0.333333  0.500000  0.333333      8.000000
  0.416667  0.500000  0.333333      8.000000
  0.500000  0.500000  0.333333      4.000000
  0.000000  0.416667  0.416667      4.000000
  0.083333  0.416667  0.416667      8.000000
  0.166667  0.416667  0.416667      8.000000
  0.250000  0.416667  0.416667      8.000000
  0.333333  0.416667  0.416667      8.000000
  0.416667  0.416667  0.416667      8.000000
  0.500000  0.416667  0.416667      4.000000
  0.000000  0.500000  0.416667      4.000000
  0.083333  0.500000  0.416667      8.000000
  0.166667  0.500000  0.416667      8.000000
  0.250000  0.500000  0.416667      8.000000
  0.333333  0.500000  0.416667      8.000000
  0.416667  0.500000  0.416667      8.000000
  0.500000  0.500000  0.416667      4.000000
  0.000000  0.500000  0.500000      1.000000
  0.083333  0.500000  0.500000      2.000000
  0.166667  0.500000  0.500000      2.000000
  0.250000  0.500000  0.500000      2.000000
  0.333333  0.500000  0.500000      2.000000
  0.416667  0.500000  0.500000      2.000000
  0.500000  0.500000  0.500000      1.000000
 
 Following cartesian coordinates:
            Coordinates               Weight
  0.000000  0.000000  0.000000      1.000000
  0.010318  0.000000  0.000000      2.000000
  0.020636  0.000000  0.000000      2.000000
  0.030953  0.000000  0.000000      2.000000
  0.041271  0.000000  0.000000      2.000000
  0.051589  0.000000  0.000000      2.000000
  0.061907  0.000000  0.000000      1.000000
  0.000000  0.010318  0.000000      4.000000
  0.010318  0.010318  0.000000      8.000000
  0.020636  0.010318  0.000000      8.000000
  0.030953  0.010318  0.000000      8.000000
  0.041271  0.010318  0.000000      8.000000
  0.051589  0.010318  0.000000      8.000000
  0.061907  0.010318  0.000000      4.000000
  0.000000  0.020636  0.000000      4.000000
  0.010318  0.020636  0.000000      8.000000
  0.020636  0.020636  0.000000      8.000000
  0.030953  0.020636  0.000000      8.000000
  0.041271  0.020636  0.000000      8.000000
  0.051589  0.020636  0.000000      8.000000
  0.061907  0.020636  0.000000      4.000000
  0.000000  0.030953  0.000000      4.000000
  0.010318  0.030953  0.000000      8.000000
  0.020636  0.030953  0.000000      8.000000
  0.030953  0.030953  0.000000      8.000000
  0.041271  0.030953  0.000000      8.000000
  0.051589  0.030953  0.000000      8.000000
  0.061907  0.030953  0.000000      4.000000
  0.000000  0.041271  0.000000      4.000000
  0.010318  0.041271  0.000000      8.000000
  0.020636  0.041271  0.000000      8.000000
  0.030953  0.041271  0.000000      8.000000
  0.041271  0.041271  0.000000      8.000000
  0.051589  0.041271  0.000000      8.000000
  0.061907  0.041271  0.000000      4.000000
  0.000000  0.051589  0.000000      4.000000
  0.010318  0.051589  0.000000      8.000000
  0.020636  0.051589  0.000000      8.000000
  0.030953  0.051589  0.000000      8.000000
  0.041271  0.051589  0.000000      8.000000
  0.051589  0.051589  0.000000      8.000000
  0.061907  0.051589  0.000000      4.000000
  0.000000  0.061907  0.000000      2.000000
  0.010318  0.061907  0.000000      4.000000
  0.020636  0.061907  0.000000      4.000000
  0.030953  0.061907  0.000000      4.000000
  0.041271  0.061907  0.000000      4.000000
  0.051589  0.061907  0.000000      4.000000
  0.061907  0.061907  0.000000      2.000000
  0.000000  0.010318  0.010318      4.000000
  0.010318  0.010318  0.010318      8.000000
  0.020636  0.010318  0.010318      8.000000
  0.030953  0.010318  0.010318      8.000000
  0.041271  0.010318  0.010318      8.000000
  0.051589  0.010318  0.010318      8.000000
  0.061907  0.010318  0.010318      4.000000
  0.000000  0.020636  0.010318      8.000000
  0.010318  0.020636  0.010318     16.000000
  0.020636  0.020636  0.010318     16.000000
  0.030953  0.020636  0.010318     16.000000
  0.041271  0.020636  0.010318     16.000000
  0.051589  0.020636  0.010318     16.000000
  0.061907  0.020636  0.010318      8.000000
  0.000000  0.030953  0.010318      8.000000
  0.010318  0.030953  0.010318     16.000000
  0.020636  0.030953  0.010318     16.000000
  0.030953  0.030953  0.010318     16.000000
  0.041271  0.030953  0.010318     16.000000
  0.051589  0.030953  0.010318     16.000000
  0.061907  0.030953  0.010318      8.000000
  0.000000  0.041271  0.010318      8.000000
  0.010318  0.041271  0.010318     16.000000
  0.020636  0.041271  0.010318     16.000000
  0.030953  0.041271  0.010318     16.000000
  0.041271  0.041271  0.010318     16.000000
  0.051589  0.041271  0.010318     16.000000
  0.061907  0.041271  0.010318      8.000000
  0.000000  0.051589  0.010318      8.000000
  0.010318  0.051589  0.010318     16.000000
  0.020636  0.051589  0.010318     16.000000
  0.030953  0.051589  0.010318     16.000000
  0.041271  0.051589  0.010318     16.000000
  0.051589  0.051589  0.010318     16.000000
  0.061907  0.051589  0.010318      8.000000
  0.000000  0.061907  0.010318      4.000000
  0.010318  0.061907  0.010318      8.000000
  0.020636  0.061907  0.010318      8.000000
  0.030953  0.061907  0.010318      8.000000
  0.041271  0.061907  0.010318      8.000000
  0.051589  0.061907  0.010318      8.000000
  0.061907  0.061907  0.010318      4.000000
  0.000000  0.020636  0.020636      4.000000
  0.010318  0.020636  0.020636      8.000000
  0.020636  0.020636  0.020636      8.000000
  0.030953  0.020636  0.020636      8.000000
  0.041271  0.020636  0.020636      8.000000
  0.051589  0.020636  0.020636      8.000000
  0.061907  0.020636  0.020636      4.000000
  0.000000  0.030953  0.020636      8.000000
  0.010318  0.030953  0.020636     16.000000
  0.020636  0.030953  0.020636     16.000000
  0.030953  0.030953  0.020636     16.000000
  0.041271  0.030953  0.020636     16.000000
  0.051589  0.030953  0.020636     16.000000
  0.061907  0.030953  0.020636      8.000000
  0.000000  0.041271  0.020636      8.000000
  0.010318  0.041271  0.020636     16.000000
  0.020636  0.041271  0.020636     16.000000
  0.030953  0.041271  0.020636     16.000000
  0.041271  0.041271  0.020636     16.000000
  0.051589  0.041271  0.020636     16.000000
  0.061907  0.041271  0.020636      8.000000
  0.000000  0.051589  0.020636      8.000000
  0.010318  0.051589  0.020636     16.000000
  0.020636  0.051589  0.020636     16.000000
  0.030953  0.051589  0.020636     16.000000
  0.041271  0.051589  0.020636     16.000000
  0.051589  0.051589  0.020636     16.000000
  0.061907  0.051589  0.020636      8.000000
  0.000000  0.061907  0.020636      4.000000
  0.010318  0.061907  0.020636      8.000000
  0.020636  0.061907  0.020636      8.000000
  0.030953  0.061907  0.020636      8.000000
  0.041271  0.061907  0.020636      8.000000
  0.051589  0.061907  0.020636      8.000000
  0.061907  0.061907  0.020636      4.000000
  0.000000  0.030953  0.030953      4.000000
  0.010318  0.030953  0.030953      8.000000
  0.020636  0.030953  0.030953      8.000000
  0.030953  0.030953  0.030953      8.000000
  0.041271  0.030953  0.030953      8.000000
  0.051589  0.030953  0.030953      8.000000
  0.061907  0.030953  0.030953      4.000000
  0.000000  0.041271  0.030953      8.000000
  0.010318  0.041271  0.030953     16.000000
  0.020636  0.041271  0.030953     16.000000
  0.030953  0.041271  0.030953     16.000000
  0.041271  0.041271  0.030953     16.000000
  0.051589  0.041271  0.030953     16.000000
  0.061907  0.041271  0.030953      8.000000
  0.000000  0.051589  0.030953      8.000000
  0.010318  0.051589  0.030953     16.000000
  0.020636  0.051589  0.030953     16.000000
  0.030953  0.051589  0.030953     16.000000
  0.041271  0.051589  0.030953     16.000000
  0.051589  0.051589  0.030953     16.000000
  0.061907  0.051589  0.030953      8.000000
  0.000000  0.061907  0.030953      4.000000
  0.010318  0.061907  0.030953      8.000000
  0.020636  0.061907  0.030953      8.000000
  0.030953  0.061907  0.030953      8.000000
  0.041271  0.061907  0.030953      8.000000
  0.051589  0.061907  0.030953      8.000000
  0.061907  0.061907  0.030953      4.000000
  0.000000  0.041271  0.041271      4.000000
  0.010318  0.041271  0.041271      8.000000
  0.020636  0.041271  0.041271      8.000000
  0.030953  0.041271  0.041271      8.000000
  0.041271  0.041271  0.041271      8.000000
  0.051589  0.041271  0.041271      8.000000
  0.061907  0.041271  0.041271      4.000000
  0.000000  0.051589  0.041271      8.000000
  0.010318  0.051589  0.041271     16.000000
  0.020636  0.051589  0.041271     16.000000
  0.030953  0.051589  0.041271     16.000000
  0.041271  0.051589  0.041271     16.000000
  0.051589  0.051589  0.041271     16.000000
  0.061907  0.051589  0.041271      8.000000
  0.000000  0.061907  0.041271      4.000000
  0.010318  0.061907  0.041271      8.000000
  0.020636  0.061907  0.041271      8.000000
  0.030953  0.061907  0.041271      8.000000
  0.041271  0.061907  0.041271      8.000000
  0.051589  0.061907  0.041271      8.000000
  0.061907  0.061907  0.041271      4.000000
  0.000000  0.051589  0.051589      4.000000
  0.010318  0.051589  0.051589      8.000000
  0.020636  0.051589  0.051589      8.000000
  0.030953  0.051589  0.051589      8.000000
  0.041271  0.051589  0.051589      8.000000
  0.051589  0.051589  0.051589      8.000000
  0.061907  0.051589  0.051589      4.000000
  0.000000  0.061907  0.051589      4.000000
  0.010318  0.061907  0.051589      8.000000
  0.020636  0.061907  0.051589      8.000000
  0.030953  0.061907  0.051589      8.000000
  0.041271  0.061907  0.051589      8.000000
  0.051589  0.061907  0.051589      8.000000
  0.061907  0.061907  0.051589      4.000000
  0.000000  0.061907  0.061907      1.000000
  0.010318  0.061907  0.061907      2.000000
  0.020636  0.061907  0.061907      2.000000
  0.030953  0.061907  0.061907      2.000000
  0.041271  0.061907  0.061907      2.000000
  0.051589  0.061907  0.061907      2.000000
  0.061907  0.061907  0.061907      1.000000
 


--------------------------------------------------------------------------------------------------------




 Dimension of arrays:
   k-Points           NKPTS =    196   number of bands    NBANDS=    212
   number of dos      NEDOS =    301   number of ions     NIONS =     32
   non local maximal  LDIM  =      6   non local SUM 2l+1 LMDIM =     18
   total plane-waves  NPLWV = 373248
   max r-space proj   IRMAX =      1   max aug-charges    IRDMAX= 278831
   dimension x,y,z NGX =    72 NGY =   72 NGZ =   72
   dimension x,y,z NGXF=   144 NGYF=  144 NGZF=  144
   support grid    NGXF=   288 NGYF=  288 NGZF=  288
   ions per type =              32
 NGX,Y,Z   is equivalent  to a cutoff of  14.82, 14.82, 14.82 a.u.
 NGXF,Y,Z  is equivalent  to a cutoff of  29.64, 29.64, 29.64 a.u.


 I would recommend the setting:
   dimension x,y,z NGX =    72 NGY =   72 NGZ =   72
 SYSTEM =  unknown system                          
 POSCAR =  Ag                                      

 Startparameter for this run:
   NWRITE =      2    write-flag & timer
   PREC   = accura    medium, high low
   ISTART =      0    job   : 0-new  1-cont  2-samecut
   ICHARG =      2    charge: 1-file 2-atom 10-const
   ISPIN  =      1    spin polarized calculation?
   LNONCOLLINEAR =      F non collinear calculations
   LSORBIT =      F    spin-orbit coupling
   INIWAV =      1    electr: 0-lowe 1-rand  2-diag
   LASPH  =      F    aspherical Exc in radial PAW
   METAGGA=      F    non-selfconsistent MetaGGA calc.

 Electronic Relaxation 1
   ENCUT  =  750.0 eV  55.12 Ry    7.42 a.u.  18.04 18.04 18.04*2*pi/ulx,y,z
   ENINI  =  750.0     initial cutoff
   ENAUG  =  412.5 eV  augmentation charge cutoff
   NELM   =     60;   NELMIN=  2; NELMDL=  0     # of ELM steps 
   EDIFF  = 0.1E-07   stopping-criterion for ELM
   LREAL  =      F    real-space projection
   LCOMPAT=      F    compatible to vasp.4.4
   LREAL_COMPAT= F    compatible to vasp.4.5.1-3
   GGA_COMPAT  = T    GGA compatible to vasp.4.4-vasp.4.6
   LMAXPAW     = -100 max onsite density
   LMAXMIX     =    2 max onsite mixed and CHGCAR
   VOSKOWN=      0    Vosko Wilk Nusair interpolation
   ROPT   =    0.00000
 Ionic relaxation
   EDIFFG = 0.1E-06   stopping-criterion for IOM
   NSW    =      0    number of steps for IOM
   NBLOCK =      1;   KBLOCK =      1    inner block; outer block 
   IBRION =     -1    ionic relax: 0-MD 1-quasi-New 2-CG
   NFREE  =      0    steps in history (QN), initial steepest desc. (CG)
   ISIF   =      2    stress and relaxation
   IWAVPR =     10    prediction:  0-non 1-charg 2-wave 3-comb
   ISYM   =      2    0-nonsym 1-usesym 2-fastsym
   LCORR  =      T    Harris-Foulkes like correction to forces

   POTIM  =   0.50    time-step for ionic-motion
   TEIN   =    0.0    initial temperature
   TEBEG  =    0.0;   TEEND  =   0.0 temperature during run
   SMASS  =  -3.00    Nose mass-parameter (am)
   estimated Nose-frequenzy (Omega)   =  0.10E-29 period in steps =****** mass=  -0.149E-26a.u.
   NPACO  =    256;   APACO  = 16.0  distance and # of slots for P.C.
   PSTRESS=    0.0 pullay stress

  Mass of Ions in am
   POMASS = 107.87
  Ionic Valenz
   ZVAL   =  11.00
  Atomic Wigner-Seitz radii
   RWIGS  =  -1.00
   NELECT =     352.0000    total number of electrons
   NUPDOWN=      -1.0000    fix difference up-down

 DOS related values:
   EMIN   =  10.00;   EMAX   =-10.00  energy-range for DOS
   ISMEAR =     0;   SIGMA  =   0.01  broadening in eV -4-tet -1-fermi 0-gaus

 Electronic relaxation 2 (details)
   IALGO  =     38    algorithm
   LDIAG  =      T    sub-space diagonalisation
   IMIX   =      4    mixing-type and parameters
     AMIX     =   0.40;   BMIX     =  1.00
     AMIX_MAG =   1.60;   BMIX_MAG =  1.00
     AMIN     =   0.10
     WC   =   100.;   INIMIX=   1;  MIXPRE=   1

 Intra band minimization:
   WEIMIN = 0.0000     energy-eigenvalue tresh-hold
   EBREAK =  0.12E-10  absolut break condition
   DEPER  =   0.30     relativ break condition  

   TIME   =   0.10     timestep for ELM

  volume/ion in A,a.u.               =      16.46       111.11
  Fermi-wavevector in a.u.,eV,Ry     =   1.431169 27.868045  2.048244

 Second variation
   LSECVAR=     F    do a second variation
 
 Write flags
   LWAVE  =      F    write WAVECAR
   LCHARG =      F    write CHGCAR
   LVTOT  =      F    write LOCPOT, local potential
   LELF   =      F    write electronic localiz. function (ELF)
   LORBIT =      0    0 simple, 1 ext, 2 COOP (PROOUT)


 Dipole corrections
   IDIPOL =      0    1-x, 2-y, 3-z
   LDIPOL =      F    correct potential



--------------------------------------------------------------------------------------------------------


 Static calculation
 charge density will be updated during run
 non-spin polarized calculation
 Variant of blocked Davidson
 Davidson routine will perform the subspace rotation
 performe sub-space diagonalisation
    after iterative eigenvector-optimisation
 modified Broyden-mixing scheme, WC =      100.0
 initial mixing is a Kerker type mixing with AMIX =  0.4000 and BMIX =      1.0000
 Hartree-type preconditioning will be used
 using additional bands           36
 reciprocal scheme for non local part
 use partial core corrections
 calculate Harris-corrections to forces 
   (improved forces if not selfconsistent)
 use gradient corrections 
 use of overlap-Matrix (Vanderbilt PP)
 Gauss-broadening in eV      SIGMA  =   0.01


--------------------------------------------------------------------------------------------------------


  energy-cutoff  :      750.00
  volume of cell :      526.86
      direct lattice vectors                 reciprocal lattice vectors
     8.076656076  0.000000000  0.000000000     0.123813617  0.000000000  0.000000000
     0.000000000  8.076656076  0.000000000     0.000000000  0.123813617  0.000000000
     0.000000000  0.000000000  8.076656076     0.000000000  0.000000000  0.123813617

  length of vectors
     8.076656076  8.076656076  8.076656076     0.123813617  0.123813617  0.123813617


 
 k-points in units of 2pi/SCALE and weight: Automatic mesh                          
   0.00000000  0.00000000  0.00000000       0.001
   0.01031780  0.00000000  0.00000000       0.001
   0.02063560  0.00000000  0.00000000       0.001
   0.03095340  0.00000000  0.00000000       0.001
   0.04127121  0.00000000  0.00000000       0.001
   0.05158901  0.00000000  0.00000000       0.001
   0.06190681  0.00000000  0.00000000       0.001
   0.00000000  0.01031780  0.00000000       0.002
   0.01031780  0.01031780  0.00000000       0.005
   0.02063560  0.01031780  0.00000000       0.005
   0.03095340  0.01031780  0.00000000       0.005
   0.04127121  0.01031780  0.00000000       0.005
   0.05158901  0.01031780  0.00000000       0.005
   0.06190681  0.01031780  0.00000000       0.002
   0.00000000  0.02063560  0.00000000       0.002
   0.01031780  0.02063560  0.00000000       0.005
   0.02063560  0.02063560  0.00000000       0.005
   0.03095340  0.02063560  0.00000000       0.005
   0.04127121  0.02063560  0.00000000       0.005
   0.05158901  0.02063560  0.00000000       0.005
   0.06190681  0.02063560  0.00000000       0.002
   0.00000000  0.03095340  0.00000000       0.002
   0.01031780  0.03095340  0.00000000       0.005
   0.02063560  0.03095340  0.00000000       0.005
   0.03095340  0.03095340  0.00000000       0.005
   0.04127121  0.03095340  0.00000000       0.005
   0.05158901  0.03095340  0.00000000       0.005
   0.06190681  0.03095340  0.00000000       0.002
   0.00000000  0.04127121  0.00000000       0.002
   0.01031780  0.04127121  0.00000000       0.005
   0.02063560  0.04127121  0.00000000       0.005
   0.03095340  0.04127121  0.00000000       0.005
   0.04127121  0.04127121  0.00000000       0.005
   0.05158901  0.04127121  0.00000000       0.005
   0.06190681  0.04127121  0.00000000       0.002
   0.00000000  0.05158901  0.00000000       0.002
   0.01031780  0.05158901  0.00000000       0.005
   0.02063560  0.05158901  0.00000000       0.005
   0.03095340  0.05158901  0.00000000       0.005
   0.04127121  0.05158901  0.00000000       0.005
   0.05158901  0.05158901  0.00000000       0.005
   0.06190681  0.05158901  0.00000000       0.002
   0.00000000  0.06190681  0.00000000       0.001
   0.01031780  0.06190681  0.00000000       0.002
   0.02063560  0.06190681  0.00000000       0.002
   0.03095340  0.06190681  0.00000000       0.002
   0.04127121  0.06190681  0.00000000       0.002
   0.05158901  0.06190681  0.00000000       0.002
   0.06190681  0.06190681  0.00000000       0.001
   0.00000000  0.01031780  0.01031780       0.002
   0.01031780  0.01031780  0.01031780       0.005
   0.02063560  0.01031780  0.01031780       0.005
   0.03095340  0.01031780  0.01031780       0.005
   0.04127121  0.01031780  0.01031780       0.005
   0.05158901  0.01031780  0.01031780       0.005
   0.06190681  0.01031780  0.01031780       0.002
   0.00000000  0.02063560  0.01031780       0.005
   0.01031780  0.02063560  0.01031780       0.009
   0.02063560  0.02063560  0.01031780       0.009
   0.03095340  0.02063560  0.01031780       0.009
   0.04127121  0.02063560  0.01031780       0.009
   0.05158901  0.02063560  0.01031780       0.009
   0.06190681  0.02063560  0.01031780       0.005
   0.00000000  0.03095340  0.01031780       0.005
   0.01031780  0.03095340  0.01031780       0.009
   0.02063560  0.03095340  0.01031780       0.009
   0.03095340  0.03095340  0.01031780       0.009
   0.04127121  0.03095340  0.01031780       0.009
   0.05158901  0.03095340  0.01031780       0.009
   0.06190681  0.03095340  0.01031780       0.005
   0.00000000  0.04127121  0.01031780       0.005
   0.01031780  0.04127121  0.01031780       0.009
   0.02063560  0.04127121  0.01031780       0.009
   0.03095340  0.04127121  0.01031780       0.009
   0.04127121  0.04127121  0.01031780       0.009
   0.05158901  0.04127121  0.01031780       0.009
   0.06190681  0.04127121  0.01031780       0.005
   0.00000000  0.05158901  0.01031780       0.005
   0.01031780  0.05158901  0.01031780       0.009
   0.02063560  0.05158901  0.01031780       0.009
   0.03095340  0.05158901  0.01031780       0.009
   0.04127121  0.05158901  0.01031780       0.009
   0.05158901  0.05158901  0.01031780       0.009
   0.06190681  0.05158901  0.01031780       0.005
   0.00000000  0.06190681  0.01031780       0.002
   0.01031780  0.06190681  0.01031780       0.005
   0.02063560  0.06190681  0.01031780       0.005
   0.03095340  0.06190681  0.01031780       0.005
   0.04127121  0.06190681  0.01031780       0.005
   0.05158901  0.06190681  0.01031780       0.005
   0.06190681  0.06190681  0.01031780       0.002
   0.00000000  0.02063560  0.02063560       0.002
   0.01031780  0.02063560  0.02063560       0.005
   0.02063560  0.02063560  0.02063560       0.005
   0.03095340  0.02063560  0.02063560       0.005
   0.04127121  0.02063560  0.02063560       0.005
   0.05158901  0.02063560  0.02063560       0.005
   0.06190681  0.02063560  0.02063560       0.002
   0.00000000  0.03095340  0.02063560       0.005
   0.01031780  0.03095340  0.02063560       0.009
   0.02063560  0.03095340  0.02063560       0.009
   0.03095340  0.03095340  0.02063560       0.009
   0.04127121  0.03095340  0.02063560       0.009
   0.05158901  0.03095340  0.02063560       0.009
   0.06190681  0.03095340  0.02063560       0.005
   0.00000000  0.04127121  0.02063560       0.005
   0.01031780  0.04127121  0.02063560       0.009
   0.02063560  0.04127121  0.02063560       0.009
   0.03095340  0.04127121  0.02063560       0.009
   0.04127121  0.04127121  0.02063560       0.009
   0.05158901  0.04127121  0.02063560       0.009
   0.06190681  0.04127121  0.02063560       0.005
   0.00000000  0.05158901  0.02063560       0.005
   0.01031780  0.05158901  0.02063560       0.009
   0.02063560  0.05158901  0.02063560       0.009
   0.03095340  0.05158901  0.02063560       0.009
   0.04127121  0.05158901  0.02063560       0.009
   0.05158901  0.05158901  0.02063560       0.009
   0.06190681  0.05158901  0.02063560       0.005
   0.00000000  0.06190681  0.02063560       0.002
   0.01031780  0.06190681  0.02063560       0.005
   0.02063560  0.06190681  0.02063560       0.005
   0.03095340  0.06190681  0.02063560       0.005
   0.04127121  0.06190681  0.02063560       0.005
   0.05158901  0.06190681  0.02063560       0.005
   0.06190681  0.06190681  0.02063560       0.002
   0.00000000  0.03095340  0.03095340       0.002
   0.01031780  0.03095340  0.03095340       0.005
   0.02063560  0.03095340  0.03095340       0.005
   0.03095340  0.03095340  0.03095340       0.005
   0.04127121  0.03095340  0.03095340       0.005
   0.05158901  0.03095340  0.03095340       0.005
   0.06190681  0.03095340  0.03095340       0.002
   0.00000000  0.04127121  0.03095340       0.005
   0.01031780  0.04127121  0.03095340       0.009
   0.02063560  0.04127121  0.03095340       0.009
   0.03095340  0.04127121  0.03095340       0.009
   0.04127121  0.04127121  0.03095340       0.009
   0.05158901  0.04127121  0.03095340       0.009
   0.06190681  0.04127121  0.03095340       0.005
   0.00000000  0.05158901  0.03095340       0.005
   0.01031780  0.05158901  0.03095340       0.009
   0.02063560  0.05158901  0.03095340       0.009
   0.03095340  0.05158901  0.03095340       0.009
   0.04127121  0.05158901  0.03095340       0.009
   0.05158901  0.05158901  0.03095340       0.009
   0.06190681  0.05158901  0.03095340       0.005
   0.00000000  0.06190681  0.03095340       0.002
   0.01031780  0.06190681  0.03095340       0.005
   0.02063560  0.06190681  0.03095340       0.005
   0.03095340  0.06190681  0.03095340       0.005
   0.04127121  0.06190681  0.03095340       0.005
   0.05158901  0.06190681  0.03095340       0.005
   0.06190681  0.06190681  0.03095340       0.002
   0.00000000  0.04127121  0.04127121       0.002
   0.01031780  0.04127121  0.04127121       0.005
   0.02063560  0.04127121  0.04127121       0.005
   0.03095340  0.04127121  0.04127121       0.005
   0.04127121  0.04127121  0.04127121       0.005
   0.05158901  0.04127121  0.04127121       0.005
   0.06190681  0.04127121  0.04127121       0.002
   0.00000000  0.05158901  0.04127121       0.005
   0.01031780  0.05158901  0.04127121       0.009
   0.02063560  0.05158901  0.04127121       0.009
   0.03095340  0.05158901  0.04127121       0.009
   0.04127121  0.05158901  0.04127121       0.009
   0.05158901  0.05158901  0.04127121       0.009
   0.06190681  0.05158901  0.04127121       0.005
   0.00000000  0.06190681  0.04127121       0.002
   0.01031780  0.06190681  0.04127121       0.005
   0.02063560  0.06190681  0.04127121       0.005
   0.03095340  0.06190681  0.04127121       0.005
   0.04127121  0.06190681  0.04127121       0.005
   0.05158901  0.06190681  0.04127121       0.005
   0.06190681  0.06190681  0.04127121       0.002
   0.00000000  0.05158901  0.05158901       0.002
   0.01031780  0.05158901  0.05158901       0.005
   0.02063560  0.05158901  0.05158901       0.005
   0.03095340  0.05158901  0.05158901       0.005
   0.04127121  0.05158901  0.05158901       0.005
   0.05158901  0.05158901  0.05158901       0.005
   0.06190681  0.05158901  0.05158901       0.002
   0.00000000  0.06190681  0.05158901       0.002
   0.01031780  0.06190681  0.05158901       0.005
   0.02063560  0.06190681  0.05158901       0.005
   0.03095340  0.06190681  0.05158901       0.005
   0.04127121  0.06190681  0.05158901       0.005
   0.05158901  0.06190681  0.05158901       0.005
   0.06190681  0.06190681  0.05158901       0.002
   0.00000000  0.06190681  0.06190681       0.001
   0.01031780  0.06190681  0.06190681       0.001
   0.02063560  0.06190681  0.06190681       0.001
   0.03095340  0.06190681  0.06190681       0.001
   0.04127121  0.06190681  0.06190681       0.001
   0.05158901  0.06190681  0.06190681       0.001
   0.06190681  0.06190681  0.06190681       0.001
 
 k-points in reciprocal lattice and weights: Automatic mesh                          
   0.00000000  0.00000000  0.00000000       0.001
   0.08333333  0.00000000  0.00000000       0.001
   0.16666667  0.00000000  0.00000000       0.001
   0.25000000  0.00000000  0.00000000       0.001
   0.33333333  0.00000000  0.00000000       0.001
   0.41666667  0.00000000  0.00000000       0.001
   0.50000000  0.00000000  0.00000000       0.001
   0.00000000  0.08333333  0.00000000       0.002
   0.08333333  0.08333333  0.00000000       0.005
   0.16666667  0.08333333  0.00000000       0.005
   0.25000000  0.08333333  0.00000000       0.005
   0.33333333  0.08333333  0.00000000       0.005
   0.41666667  0.08333333  0.00000000       0.005
   0.50000000  0.08333333  0.00000000       0.002
   0.00000000  0.16666667  0.00000000       0.002
   0.08333333  0.16666667  0.00000000       0.005
   0.16666667  0.16666667  0.00000000       0.005
   0.25000000  0.16666667  0.00000000       0.005
   0.33333333  0.16666667  0.00000000       0.005
   0.41666667  0.16666667  0.00000000       0.005
   0.50000000  0.16666667  0.00000000       0.002
   0.00000000  0.25000000  0.00000000       0.002
   0.08333333  0.25000000  0.00000000       0.005
   0.16666667  0.25000000  0.00000000       0.005
   0.25000000  0.25000000  0.00000000       0.005
   0.33333333  0.25000000  0.00000000       0.005
   0.41666667  0.25000000  0.00000000       0.005
   0.50000000  0.25000000  0.00000000       0.002
   0.00000000  0.33333333  0.00000000       0.002
   0.08333333  0.33333333  0.00000000       0.005
   0.16666667  0.33333333  0.00000000       0.005
   0.25000000  0.33333333  0.00000000       0.005
   0.33333333  0.33333333  0.00000000       0.005
   0.41666667  0.33333333  0.00000000       0.005
   0.50000000  0.33333333  0.00000000       0.002
   0.00000000  0.41666667  0.00000000       0.002
   0.08333333  0.41666667  0.00000000       0.005
   0.16666667  0.41666667  0.00000000       0.005
   0.25000000  0.41666667  0.00000000       0.005
   0.33333333  0.41666667  0.00000000       0.005
   0.41666667  0.41666667  0.00000000       0.005
   0.50000000  0.41666667  0.00000000       0.002
   0.00000000  0.50000000  0.00000000       0.001
   0.08333333  0.50000000  0.00000000       0.002
   0.16666667  0.50000000  0.00000000       0.002
   0.25000000  0.50000000  0.00000000       0.002
   0.33333333  0.50000000  0.00000000       0.002
   0.41666667  0.50000000  0.00000000       0.002
   0.50000000  0.50000000  0.00000000       0.001
   0.00000000  0.08333333  0.08333333       0.002
   0.08333333  0.08333333  0.08333333       0.005
   0.16666667  0.08333333  0.08333333       0.005
   0.25000000  0.08333333  0.08333333       0.005
   0.33333333  0.08333333  0.08333333       0.005
   0.41666667  0.08333333  0.08333333       0.005
   0.50000000  0.08333333  0.08333333       0.002
   0.00000000  0.16666667  0.08333333       0.005
   0.08333333  0.16666667  0.08333333       0.009
   0.16666667  0.16666667  0.08333333       0.009
   0.25000000  0.16666667  0.08333333       0.009
   0.33333333  0.16666667  0.08333333       0.009
   0.41666667  0.16666667  0.08333333       0.009
   0.50000000  0.16666667  0.08333333       0.005
   0.00000000  0.25000000  0.08333333       0.005
   0.08333333  0.25000000  0.08333333       0.009
   0.16666667  0.25000000  0.08333333       0.009
   0.25000000  0.25000000  0.08333333       0.009
   0.33333333  0.25000000  0.08333333       0.009
   0.41666667  0.25000000  0.08333333       0.009
   0.50000000  0.25000000  0.08333333       0.005
   0.00000000  0.33333333  0.08333333       0.005
   0.08333333  0.33333333  0.08333333       0.009
   0.16666667  0.33333333  0.08333333       0.009
   0.25000000  0.33333333  0.08333333       0.009
   0.33333333  0.33333333  0.08333333       0.009
   0.41666667  0.33333333  0.08333333       0.009
   0.50000000  0.33333333  0.08333333       0.005
   0.00000000  0.41666667  0.08333333       0.005
   0.08333333  0.41666667  0.08333333       0.009
   0.16666667  0.41666667  0.08333333       0.009
   0.25000000  0.41666667  0.08333333       0.009
   0.33333333  0.41666667  0.08333333       0.009
   0.41666667  0.41666667  0.08333333       0.009
   0.50000000  0.41666667  0.08333333       0.005
   0.00000000  0.50000000  0.08333333       0.002
   0.08333333  0.50000000  0.08333333       0.005
   0.16666667  0.50000000  0.08333333       0.005
   0.25000000  0.50000000  0.08333333       0.005
   0.33333333  0.50000000  0.08333333       0.005
   0.41666667  0.50000000  0.08333333       0.005
   0.50000000  0.50000000  0.08333333       0.002
   0.00000000  0.16666667  0.16666667       0.002
   0.08333333  0.16666667  0.16666667       0.005
   0.16666667  0.16666667  0.16666667       0.005
   0.25000000  0.16666667  0.16666667       0.005
   0.33333333  0.16666667  0.16666667       0.005
   0.41666667  0.16666667  0.16666667       0.005
   0.50000000  0.16666667  0.16666667       0.002
   0.00000000  0.25000000  0.16666667       0.005
   0.08333333  0.25000000  0.16666667       0.009
   0.16666667  0.25000000  0.16666667       0.009
   0.25000000  0.25000000  0.16666667       0.009
   0.33333333  0.25000000  0.16666667       0.009
   0.41666667  0.25000000  0.16666667       0.009
   0.50000000  0.25000000  0.16666667       0.005
   0.00000000  0.33333333  0.16666667       0.005
   0.08333333  0.33333333  0.16666667       0.009
   0.16666667  0.33333333  0.16666667       0.009
   0.25000000  0.33333333  0.16666667       0.009
   0.33333333  0.33333333  0.16666667       0.009
   0.41666667  0.33333333  0.16666667       0.009
   0.50000000  0.33333333  0.16666667       0.005
   0.00000000  0.41666667  0.16666667       0.005
   0.08333333  0.41666667  0.16666667       0.009
   0.16666667  0.41666667  0.16666667       0.009
   0.25000000  0.41666667  0.16666667       0.009
   0.33333333  0.41666667  0.16666667       0.009
   0.41666667  0.41666667  0.16666667       0.009
   0.50000000  0.41666667  0.16666667       0.005
   0.00000000  0.50000000  0.16666667       0.002
   0.08333333  0.50000000  0.16666667       0.005
   0.16666667  0.50000000  0.16666667       0.005
   0.25000000  0.50000000  0.16666667       0.005
   0.33333333  0.50000000  0.16666667       0.005
   0.41666667  0.50000000  0.16666667       0.005
   0.50000000  0.50000000  0.16666667       0.002
   0.00000000  0.25000000  0.25000000       0.002
   0.08333333  0.25000000  0.25000000       0.005
   0.16666667  0.25000000  0.25000000       0.005
   0.25000000  0.25000000  0.25000000       0.005
   0.33333333  0.25000000  0.25000000       0.005
   0.41666667  0.25000000  0.25000000       0.005
   0.50000000  0.25000000  0.25000000       0.002
   0.00000000  0.33333333  0.25000000       0.005
   0.08333333  0.33333333  0.25000000       0.009
   0.16666667  0.33333333  0.25000000       0.009
   0.25000000  0.33333333  0.25000000       0.009
   0.33333333  0.33333333  0.25000000       0.009
   0.41666667  0.33333333  0.25000000       0.009
   0.50000000  0.33333333  0.25000000       0.005
   0.00000000  0.41666667  0.25000000       0.005
   0.08333333  0.41666667  0.25000000       0.009
   0.16666667  0.41666667  0.25000000       0.009
   0.25000000  0.41666667  0.25000000       0.009
   0.33333333  0.41666667  0.25000000       0.009
   0.41666667  0.41666667  0.25000000       0.009
   0.50000000  0.41666667  0.25000000       0.005
   0.00000000  0.50000000  0.25000000       0.002
   0.08333333  0.50000000  0.25000000       0.005
   0.16666667  0.50000000  0.25000000       0.005
   0.25000000  0.50000000  0.25000000       0.005
   0.33333333  0.50000000  0.25000000       0.005
   0.41666667  0.50000000  0.25000000       0.005
   0.50000000  0.50000000  0.25000000       0.002
   0.00000000  0.33333333  0.33333333       0.002
   0.08333333  0.33333333  0.33333333       0.005
   0.16666667  0.33333333  0.33333333       0.005
   0.25000000  0.33333333  0.33333333       0.005
   0.33333333  0.33333333  0.33333333       0.005
   0.41666667  0.33333333  0.33333333       0.005
   0.50000000  0.33333333  0.33333333       0.002
   0.00000000  0.41666667  0.33333333       0.005
   0.08333333  0.41666667  0.33333333       0.009
   0.16666667  0.41666667  0.33333333       0.009
   0.25000000  0.41666667  0.33333333       0.009
   0.33333333  0.41666667  0.33333333       0.009
   0.41666667  0.41666667  0.33333333       0.009
   0.50000000  0.41666667  0.33333333       0.005
   0.00000000  0.50000000  0.33333333       0.002
   0.08333333  0.50000000  0.33333333       0.005
   0.16666667  0.50000000  0.33333333       0.005
   0.25000000  0.50000000  0.33333333       0.005
   0.33333333  0.50000000  0.33333333       0.005
   0.41666667  0.50000000  0.33333333       0.005
   0.50000000  0.50000000  0.33333333       0.002
   0.00000000  0.41666667  0.41666667       0.002
   0.08333333  0.41666667  0.41666667       0.005
   0.16666667  0.41666667  0.41666667       0.005
   0.25000000  0.41666667  0.41666667       0.005
   0.33333333  0.41666667  0.41666667       0.005
   0.41666667  0.41666667  0.41666667       0.005
   0.50000000  0.41666667  0.41666667       0.002
   0.00000000  0.50000000  0.41666667       0.002
   0.08333333  0.50000000  0.41666667       0.005
   0.16666667  0.50000000  0.41666667       0.005
   0.25000000  0.50000000  0.41666667       0.005
   0.33333333  0.50000000  0.41666667       0.005
   0.41666667  0.50000000  0.41666667       0.005
   0.50000000  0.50000000  0.41666667       0.002
   0.00000000  0.50000000  0.50000000       0.001
   0.08333333  0.50000000  0.50000000       0.001
   0.16666667  0.50000000  0.50000000       0.001
   0.25000000  0.50000000  0.50000000       0.001
   0.33333333  0.50000000  0.50000000       0.001
   0.41666667  0.50000000  0.50000000       0.001
   0.50000000  0.50000000  0.50000000       0.001
 
 position of ions in fractional coordinates (direct lattice) 
   0.00123814  0.00000000  0.00000000
   0.50000000  0.00000000  0.00000000
   0.00000000  0.50000000  0.00000000
   0.50000000  0.50000000  0.00000000
   0.00000000  0.00000000  0.50000000
   0.50000000  0.00000000  0.50000000
   0.00000000  0.50000000  0.50000000
   0.50000000  0.50000000  0.50000000
   0.25000000  0.25000000  0.00000000
   0.75000000  0.25000000  0.00000000
   0.25000000  0.75000000  0.00000000
   0.75000000  0.75000000  0.00000000
   0.25000000  0.25000000  0.50000000
   0.75000000  0.25000000  0.50000000
   0.25000000  0.75000000  0.50000000
   0.75000000  0.75000000  0.50000000
   0.25000000  0.00000000  0.25000000
   0.75000000  0.00000000  0.25000000
   0.25000000  0.50000000  0.25000000
   0.75000000  0.50000000  0.25000000
   0.25000000  0.00000000  0.75000000
   0.75000000  0.00000000  0.75000000
   0.25000000  0.50000000  0.75000000
   0.75000000  0.50000000  0.75000000
   0.00000000  0.25000000  0.25000000
   0.50000000  0.25000000  0.25000000
   0.00000000  0.75000000  0.25000000
   0.50000000  0.75000000  0.25000000
   0.00000000  0.25000000  0.75000000
   0.50000000  0.25000000  0.75000000
   0.00000000  0.75000000  0.75000000
   0.50000000  0.75000000  0.75000000
 
 position of ions in cartesian coordinates  (Angst):
   0.01000000  0.00000000  0.00000000
   4.03832804  0.00000000  0.00000000
   0.00000000  4.03832804  0.00000000
   4.03832804  4.03832804  0.00000000
   0.00000000  0.00000000  4.03832804
   4.03832804  0.00000000  4.03832804
   0.00000000  4.03832804  4.03832804
   4.03832804  4.03832804  4.03832804
   2.01916402  2.01916402  0.00000000
   6.05749206  2.01916402  0.00000000
   2.01916402  6.05749206  0.00000000
   6.05749206  6.05749206  0.00000000
   2.01916402  2.01916402  4.03832804
   6.05749206  2.01916402  4.03832804
   2.01916402  6.05749206  4.03832804
   6.05749206  6.05749206  4.03832804
   2.01916402  0.00000000  2.01916402
   6.05749206  0.00000000  2.01916402
   2.01916402  4.03832804  2.01916402
   6.05749206  4.03832804  2.01916402
   2.01916402  0.00000000  6.05749206
   6.05749206  0.00000000  6.05749206
   2.01916402  4.03832804  6.05749206
   6.05749206  4.03832804  6.05749206
   0.00000000  2.01916402  2.01916402
   4.03832804  2.01916402  2.01916402
   0.00000000  6.05749206  2.01916402
   4.03832804  6.05749206  2.01916402
   0.00000000  2.01916402  6.05749206
   4.03832804  2.01916402  6.05749206
   0.00000000  6.05749206  6.05749206
   4.03832804  6.05749206  6.05749206
 


--------------------------------------------------------------------------------------------------------


 k-point  1 :  0.00000.00000.0000  plane waves:  24573
 k-point  2 :  0.08330.00000.0000  plane waves:  24560
 k-point  3 :  0.16670.00000.0000  plane waves:  24552
 k-point  4 :  0.25000.00000.0000  plane waves:  24576
 k-point  5 :  0.33330.00000.0000  plane waves:  24548
 k-point  6 :  0.41670.00000.0000  plane waves:  24544
 k-point  7 :  0.50000.00000.0000  plane waves:  24612
 k-point  8 :  0.00000.08330.0000  plane waves:  24560
 k-point  9 :  0.08330.08330.0000  plane waves:  24577
 k-point 10 :  0.16670.08330.0000  plane waves:  24564
 k-point 11 :  0.25000.08330.0000  plane waves:  24579
 k-point 12 :  0.33330.08330.0000  plane waves:  24541
 k-point 13 :  0.41670.08330.0000  plane waves:  24555
 k-point 14 :  0.50000.08330.0000  plane waves:  24564
 k-point 15 :  0.00000.16670.0000  plane waves:  24552
 k-point 16 :  0.08330.16670.0000  plane waves:  24564
 k-point 17 :  0.16670.16670.0000  plane waves:  24549
 k-point 18 :  0.25000.16670.0000  plane waves:  24583
 k-point 19 :  0.33330.16670.0000  plane waves:  24549
 k-point 20 :  0.41670.16670.0000  plane waves:  24563
 k-point 21 :  0.50000.16670.0000  plane waves:  24550
 k-point 22 :  0.00000.25000.0000  plane waves:  24576
 k-point 23 :  0.08330.25000.0000  plane waves:  24579
 k-point 24 :  0.16670.25000.0000  plane waves:  24583
 k-point 25 :  0.25000.25000.0000  plane waves:  24588
 k-point 26 :  0.33330.25000.0000  plane waves:  24548
 k-point 27 :  0.41670.25000.0000  plane waves:  24568
 k-point 28 :  0.50000.25000.0000  plane waves:  24536
 k-point 29 :  0.00000.33330.0000  plane waves:  24548
 k-point 30 :  0.08330.33330.0000  plane waves:  24541
 k-point 31 :  0.16670.33330.0000  plane waves:  24549
 k-point 32 :  0.25000.33330.0000  plane waves:  24548
 k-point 33 :  0.33330.33330.0000  plane waves:  24554
 k-point 34 :  0.41670.33330.0000  plane waves:  24551
 k-point 35 :  0.50000.33330.0000  plane waves:  24544
 k-point 36 :  0.00000.41670.0000  plane waves:  24544
 k-point 37 :  0.08330.41670.0000  plane waves:  24555
 k-point 38 :  0.16670.41670.0000  plane waves:  24563
 k-point 39 :  0.25000.41670.0000  plane waves:  24568
 k-point 40 :  0.33330.41670.0000  plane waves:  24551
 k-point 41 :  0.41670.41670.0000  plane waves:  24566
 k-point 42 :  0.50000.41670.0000  plane waves:  24546
 k-point 43 :  0.00000.50000.0000  plane waves:  24612
 k-point 44 :  0.08330.50000.0000  plane waves:  24564
 k-point 45 :  0.16670.50000.0000  plane waves:  24550
 k-point 46 :  0.25000.50000.0000  plane waves:  24536
 k-point 47 :  0.33330.50000.0000  plane waves:  24544
 k-point 48 :  0.41670.50000.0000  plane waves:  24546
 k-point 49 :  0.50000.50000.0000  plane waves:  24564
 k-point 50 :  0.00000.08330.0833  plane waves:  24577
 k-point 51 :  0.08330.08330.0833  plane waves:  24537
 k-point 52 :  0.16670.08330.0833  plane waves:  24569
 k-point 53 :  0.25000.08330.0833  plane waves:  24586
 k-point 54 :  0.33330.08330.0833  plane waves:  24557
 k-point 55 :  0.41670.08330.0833  plane waves:  24548
 k-point 56 :  0.50000.08330.0833  plane waves:  24568
 k-point 57 :  0.00000.16670.0833  plane waves:  24564
 k-point 58 :  0.08330.16670.0833  plane waves:  24569
 k-point 59 :  0.16670.16670.0833  plane waves:  24578
 k-point 60 :  0.25000.16670.0833  plane waves:  24580
 k-point 61 :  0.33330.16670.0833  plane waves:  24554
 k-point 62 :  0.41670.16670.0833  plane waves:  24557
 k-point 63 :  0.50000.16670.0833  plane waves:  24554
 k-point 64 :  0.00000.25000.0833  plane waves:  24579
 k-point 65 :  0.08330.25000.0833  plane waves:  24586
 k-point 66 :  0.16670.25000.0833  plane waves:  24580
 k-point 67 :  0.25000.25000.0833  plane waves:  24554
 k-point 68 :  0.33330.25000.0833  plane waves:  24551
 k-point 69 :  0.41670.25000.0833  plane waves:  24575
 k-point 70 :  0.50000.25000.0833  plane waves:  24574
 k-point 71 :  0.00000.33330.0833  plane waves:  24541
 k-point 72 :  0.08330.33330.0833  plane waves:  24557
 k-point 73 :  0.16670.33330.0833  plane waves:  24554
 k-point 74 :  0.25000.33330.0833  plane waves:  24551
 k-point 75 :  0.33330.33330.0833  plane waves:  24568
 k-point 76 :  0.41670.33330.0833  plane waves:  24562
 k-point 77 :  0.50000.33330.0833  plane waves:  24576
 k-point 78 :  0.00000.41670.0833  plane waves:  24555
 k-point 79 :  0.08330.41670.0833  plane waves:  24548
 k-point 80 :  0.16670.41670.0833  plane waves:  24557
 k-point 81 :  0.25000.41670.0833  plane waves:  24575
 k-point 82 :  0.33330.41670.0833  plane waves:  24562
 k-point 83 :  0.41670.41670.0833  plane waves:  24553
 k-point 84 :  0.50000.41670.0833  plane waves:  24576
 k-point 85 :  0.00000.50000.0833  plane waves:  24564
 k-point 86 :  0.08330.50000.0833  plane waves:  24568
 k-point 87 :  0.16670.50000.0833  plane waves:  24554
 k-point 88 :  0.25000.50000.0833  plane waves:  24574
 k-point 89 :  0.33330.50000.0833  plane waves:  24576
 k-point 90 :  0.41670.50000.0833  plane waves:  24576
 k-point 91 :  0.50000.50000.0833  plane waves:  24580
 k-point 92 :  0.00000.16670.1667  plane waves:  24549
 k-point 93 :  0.08330.16670.1667  plane waves:  24578
 k-point 94 :  0.16670.16670.1667  plane waves:  24555
 k-point 95 :  0.25000.16670.1667  plane waves:  24554
 k-point 96 :  0.33330.16670.1667  plane waves:  24569
 k-point 97 :  0.41670.16670.1667  plane waves:  24569
 k-point 98 :  0.50000.16670.1667  plane waves:  24606
 k-point 99 :  0.00000.25000.1667  plane waves:  24583
 k-point ** :  0.08330.25000.1667  plane waves:  24580
 k-point ** :  0.16670.25000.1667  plane waves:  24554
 k-point ** :  0.25000.25000.1667  plane waves:  24550
 k-point ** :  0.33330.25000.1667  plane waves:  24573
 k-point ** :  0.41670.25000.1667  plane waves:  24580
 k-point ** :  0.50000.25000.1667  plane waves:  24578
 k-point ** :  0.00000.33330.1667  plane waves:  24549
 k-point ** :  0.08330.33330.1667  plane waves:  24554
 k-point ** :  0.16670.33330.1667  plane waves:  24569
 k-point ** :  0.25000.33330.1667  plane waves:  24573
 k-point ** :  0.33330.33330.1667  plane waves:  24588
 k-point ** :  0.41670.33330.1667  plane waves:  24584
 k-point ** :  0.50000.33330.1667  plane waves:  24556
 k-point ** :  0.00000.41670.1667  plane waves:  24563
 k-point ** :  0.08330.41670.1667  plane waves:  24557
 k-point ** :  0.16670.41670.1667  plane waves:  24569
 k-point ** :  0.25000.41670.1667  plane waves:  24580
 k-point ** :  0.33330.41670.1667  plane waves:  24584
 k-point ** :  0.41670.41670.1667  plane waves:  24583
 k-point ** :  0.50000.41670.1667  plane waves:  24582
 k-point ** :  0.00000.50000.1667  plane waves:  24550
 k-point ** :  0.08330.50000.1667  plane waves:  24554
 k-point ** :  0.16670.50000.1667  plane waves:  24606
 k-point ** :  0.25000.50000.1667  plane waves:  24578
 k-point ** :  0.33330.50000.1667  plane waves:  24556
 k-point ** :  0.41670.50000.1667  plane waves:  24582
 k-point ** :  0.50000.50000.1667  plane waves:  24596
 k-point ** :  0.00000.25000.2500  plane waves:  24588
 k-point ** :  0.08330.25000.2500  plane waves:  24554
 k-point ** :  0.16670.25000.2500  plane waves:  24550
 k-point ** :  0.25000.25000.2500  plane waves:  24549
 k-point ** :  0.33330.25000.2500  plane waves:  24595
 k-point ** :  0.41670.25000.2500  plane waves:  24589
 k-point ** :  0.50000.25000.2500  plane waves:  24572
 k-point ** :  0.00000.33330.2500  plane waves:  24548
 k-point ** :  0.08330.33330.2500  plane waves:  24551
 k-point ** :  0.16670.33330.2500  plane waves:  24573
 k-point ** :  0.25000.33330.2500  plane waves:  24595
 k-point ** :  0.33330.33330.2500  plane waves:  24598
 k-point ** :  0.41670.33330.2500  plane waves:  24622
 k-point ** :  0.50000.33330.2500  plane waves:  24606
 k-point ** :  0.00000.41670.2500  plane waves:  24568
 k-point ** :  0.08330.41670.2500  plane waves:  24575
 k-point ** :  0.16670.41670.2500  plane waves:  24580
 k-point ** :  0.25000.41670.2500  plane waves:  24589
 k-point ** :  0.33330.41670.2500  plane waves:  24622
 k-point ** :  0.41670.41670.2500  plane waves:  24615
 k-point ** :  0.50000.41670.2500  plane waves:  24580
 k-point ** :  0.00000.50000.2500  plane waves:  24536
 k-point ** :  0.08330.50000.2500  plane waves:  24574
 k-point ** :  0.16670.50000.2500  plane waves:  24578
 k-point ** :  0.25000.50000.2500  plane waves:  24572
 k-point ** :  0.33330.50000.2500  plane waves:  24606
 k-point ** :  0.41670.50000.2500  plane waves:  24580
 k-point ** :  0.50000.50000.2500  plane waves:  24612
 k-point ** :  0.00000.33330.3333  plane waves:  24554
 k-point ** :  0.08330.33330.3333  plane waves:  24568
 k-point ** :  0.16670.33330.3333  plane waves:  24588
 k-point ** :  0.25000.33330.3333  plane waves:  24598
 k-point ** :  0.33330.33330.3333  plane waves:  24639
 k-point ** :  0.41670.33330.3333  plane waves:  24615
 k-point ** :  0.50000.33330.3333  plane waves:  24600
 k-point ** :  0.00000.41670.3333  plane waves:  24551
 k-point ** :  0.08330.41670.3333  plane waves:  24562
 k-point ** :  0.16670.41670.3333  plane waves:  24584
 k-point ** :  0.25000.41670.3333  plane waves:  24622
 k-point ** :  0.33330.41670.3333  plane waves:  24615
 k-point ** :  0.41670.41670.3333  plane waves:  24597
 k-point ** :  0.50000.41670.3333  plane waves:  24614
 k-point ** :  0.00000.50000.3333  plane waves:  24544
 k-point ** :  0.08330.50000.3333  plane waves:  24576
 k-point ** :  0.16670.50000.3333  plane waves:  24556
 k-point ** :  0.25000.50000.3333  plane waves:  24606
 k-point ** :  0.33330.50000.3333  plane waves:  24600
 k-point ** :  0.41670.50000.3333  plane waves:  24614
 k-point ** :  0.50000.50000.3333  plane waves:  24564
 k-point ** :  0.00000.41670.4167  plane waves:  24566
 k-point ** :  0.08330.41670.4167  plane waves:  24553
 k-point ** :  0.16670.41670.4167  plane waves:  24583
 k-point ** :  0.25000.41670.4167  plane waves:  24615
 k-point ** :  0.33330.41670.4167  plane waves:  24597
 k-point ** :  0.41670.41670.4167  plane waves:  24614
 k-point ** :  0.50000.41670.4167  plane waves:  24634
 k-point ** :  0.00000.50000.4167  plane waves:  24546
 k-point ** :  0.08330.50000.4167  plane waves:  24576
 k-point ** :  0.16670.50000.4167  plane waves:  24582
 k-point ** :  0.25000.50000.4167  plane waves:  24580
 k-point ** :  0.33330.50000.4167  plane waves:  24614
 k-point ** :  0.41670.50000.4167  plane waves:  24634
 k-point ** :  0.50000.50000.4167  plane waves:  24620
 k-point ** :  0.00000.50000.5000  plane waves:  24564
 k-point ** :  0.08330.50000.5000  plane waves:  24580
 k-point ** :  0.16670.50000.5000  plane waves:  24596
 k-point ** :  0.25000.50000.5000  plane waves:  24612
 k-point ** :  0.33330.50000.5000  plane waves:  24564
 k-point ** :  0.41670.50000.5000  plane waves:  24620
 k-point ** :  0.50000.50000.5000  plane waves:  24656

 maximum and minimum number of plane-waves per node :  24656 24536

 maximum number of plane-waves:  24656
 maximal index in each direction: 
   IXMAX= 18   IYMAX= 18   IZMAX= 18
   IXMIN=-18   IYMIN=-18   IZMIN=-18

 WARNING: wrap around error must be expected set NGX to  74
 WARNING: wrap around error must be expected set NGY to  74
 WARNING: wrap around error must be expected set NGZ to  74

 parallel 3dFFT wavefunction:
    minimum data exchange during FFTs selected (reduces bandwidth)
 parallel 3dFFT charge:
    minimum data exchange during FFTs selected (reduces bandwidth)

 For storing wavefunctions ******* MBYTES are necessary
 For predicting wavefunctions  178.85 MBYTES are necessary
Broyden mixing: mesh for mixing (old mesh)
   NGX = 37   NGY = 37   NGZ = 37
  (NGX  =144   NGY  =144   NGZ  =144)
 gives a total of  50653 points
 initial charge density was supplied:
 charge density of overlapping atoms calculated
 number of electron  352.0000000 magnetization 
 keeping initial charge density in first step


--------------------------------------------------------------------------------------------------------


 Maximum index for augmentation-charges        67485 (set IRDMAX)


--------------------------------------------------------------------------------------------------------


 First call to EWALD:  gamma=   0.219
 Maximum number of real-space cells 3x 3x 3
 Maximum number of reciprocal cells 3x 3x 3

    FEWALD:  VPU time    0.00: CPU time    0.00


----------------------------------------- Iteration    1(   1)  ---------------------------------------


    POTLOK:  VPU time    0.52: CPU time    0.53
    SETDIJ:  VPU time    1.02: CPU time    1.02
    EDDAV :  VPU time 2524.65: CPU time 2532.40
    DOS   :  VPU time    0.00: CPU time   -0.00
    ------------------------------------------
      LOOP:  VPU time 2526.38: CPU time 2534.13

 eigenvalue-minimisations  : 83176
 total energy-change (2. order) : 0.4424644E+04  (-0.2154875E+05)
 number of electron  352.0000000 magnetization 
 augmentation part   352.0000000 magnetization 

 Free energy of the ion-electron system (eV)
  ---------------------------------------------------
  alpha Z        PSCENC =      3451.38679373
  Ewald energy   TEWEN  =    -31650.88542768
  -1/2 Hartree   DENC   =     -6308.84471540
  -V(xc)+E(xc)   XCENC  =      -339.10269905
  PAW double counting   =     27861.41421209   -26376.63839568
  entropy T*S    EENTRO =        -0.00042732
  eigenvalues    EBANDS =      4590.11744975
  atomic energy  EATOM  =     33197.19690173
  ---------------------------------------------------
  free energy    TOTEN  =      4424.64369217 eV

  energy without entropy =     4424.64411949  energy(sigma->0) =     4424.64390583


--------------------------------------------------------------------------------------------------------




----------------------------------------- Iteration    1(   2)  ---------------------------------------


    EDDAV :  VPU time 2529.43: CPU time 2537.20
    DOS   :  VPU time    0.00: CPU time   -0.00
    ------------------------------------------
      LOOP:  VPU time 2529.63: CPU time 2537.40

 eigenvalue-minimisations  : 83104
 total energy-change (2. order) :-0.4285138E+04  (-0.4103503E+04)
 number of electron  352.0000000 magnetization 
 augmentation part   352.0000000 magnetization 

 Free energy of the ion-electron system (eV)
  ---------------------------------------------------
  alpha Z        PSCENC =      3451.38679373
  Ewald energy   TEWEN  =    -31650.88542768
  -1/2 Hartree   DENC   =     -6308.84471540
  -V(xc)+E(xc)   XCENC  =      -339.10269905
  PAW double counting   =     27861.41421209   -26376.63839568
  entropy T*S    EENTRO =        -0.00044702
  eigenvalues    EBANDS =       304.97988055
  atomic energy  EATOM  =     33197.19690173
  ---------------------------------------------------
  free energy    TOTEN  =       139.50610327 eV

  energy without entropy =      139.50655029  energy(sigma->0) =      139.50632678


--------------------------------------------------------------------------------------------------------




----------------------------------------- Iteration    1(   3)  ---------------------------------------


    EDDAV :  VPU time 2608.34: CPU time 2618.15
    DOS   :  VPU time    0.00: CPU time   -0.00
    ------------------------------------------
      LOOP:  VPU time 2608.54: CPU time 2618.35

 eigenvalue-minimisations  : 86640
 total energy-change (2. order) :-0.2315672E+03  (-0.2204371E+03)
 number of electron  352.0000000 magnetization 
 augmentation part   352.0000000 magnetization 

 Free energy of the ion-electron system (eV)
  ---------------------------------------------------
  alpha Z        PSCENC =      3451.38679373
  Ewald energy   TEWEN  =    -31650.88542768
  -1/2 Hartree   DENC   =     -6308.84471540
  -V(xc)+E(xc)   XCENC  =      -339.10269905
  PAW double counting   =     27861.41421209   -26376.63839568
  entropy T*S    EENTRO =        -0.00050824
  eigenvalues    EBANDS =        73.41272357
  atomic energy  EATOM  =     33197.19690173
  ---------------------------------------------------
  free energy    TOTEN  =       -92.06111493 eV

  energy without entropy =      -92.06060669  energy(sigma->0) =      -92.06086081


--------------------------------------------------------------------------------------------------------




----------------------------------------- Iteration    1(   4)  ---------------------------------------


    EDDAV :  VPU time 2670.73: CPU time 2685.79
    DOS   :  VPU time    0.00: CPU time   -0.00
    ------------------------------------------
      LOOP:  VPU time 2670.93: CPU time 2685.99

 eigenvalue-minimisations  : 89308
 total energy-change (2. order) :-0.4805721E+01  (-0.4773588E+01)
 number of electron  352.0000000 magnetization 
 augmentation part   352.0000000 magnetization 

 Free energy of the ion-electron system (eV)
  ---------------------------------------------------
  alpha Z        PSCENC =      3451.38679373
  Ewald energy   TEWEN  =    -31650.88542768
  -1/2 Hartree   DENC   =     -6308.84471540
  -V(xc)+E(xc)   XCENC  =      -339.10269905
  PAW double counting   =     27861.41421209   -26376.63839568
  entropy T*S    EENTRO =        -0.00039092
  eigenvalues    EBANDS =        68.60688543
  atomic energy  EATOM  =     33197.19690173
  ---------------------------------------------------
  free energy    TOTEN  =       -96.86683575 eV

  energy without entropy =      -96.86644483  energy(sigma->0) =      -96.86664029


--------------------------------------------------------------------------------------------------------




----------------------------------------- Iteration    1(   5)  ---------------------------------------


    EDDAV :  VPU time 2653.00: CPU time 2658.22
    DOS   :  VPU time    0.00: CPU time   -0.00
    CHARGE:  VPU time   87.44: CPU time   87.60
    MIXING:  VPU time    0.01: CPU time    0.01
    ------------------------------------------
      LOOP:  VPU time 2740.65: CPU time 2746.03

 eigenvalue-minimisations  : 88312
 total energy-change (2. order) :-0.2733528E-01  (-0.2730549E-01)
 number of electron  352.0000010 magnetization 
 augmentation part   162.5639435 magnetization 

 Broyden mixing:
  rms(total) = 0.16929E+01    rms(broyden)= 0.16929E+01
  rms(prec ) = 0.25683E+01
  weight for this iteration     100.00

 Free energy of the ion-electron system (eV)
  ---------------------------------------------------
  alpha Z        PSCENC =      3451.38679373
  Ewald energy   TEWEN  =    -31650.88542768
  -1/2 Hartree   DENC   =     -6308.84471540
  -V(xc)+E(xc)   XCENC  =      -339.10269905
  PAW double counting   =     27861.41421209   -26376.63839568
  entropy T*S    EENTRO =        -0.00038867
  eigenvalues    EBANDS =        68.57954789
  atomic energy  EATOM  =     33197.19690173
  ---------------------------------------------------
  free energy    TOTEN  =       -96.89417103 eV

  energy without entropy =      -96.89378236  energy(sigma->0) =      -96.89397670


--------------------------------------------------------------------------------------------------------




----------------------------------------- Iteration    1(   6)  ---------------------------------------


    POTLOK:  VPU time    0.52: CPU time    0.53
    SETDIJ:  VPU time    0.85: CPU time    0.85
    EDDAV :  VPU time 2597.34: CPU time 2602.09
    DOS   :  VPU time    0.00: CPU time   -0.00
    CHARGE:  VPU time   86.39: CPU time   86.52
    MIXING:  VPU time    0.01: CPU time    0.01
    ------------------------------------------
      LOOP:  VPU time 2685.31: CPU time 2690.19

 eigenvalue-minimisations  : 87676
 total energy-change (2. order) : 0.7544852E+01  (-0.2608516E+01)
 number of electron  352.0000010 magnetization 
 augmentation part   167.8999882 magnetization 

 Broyden mixing:
  rms(total) = 0.31771E+00    rms(broyden)= 0.31771E+00
  rms(prec ) = 0.46226E+00
  weight for this iteration     100.00

 eigenvalues of (default mixing * dielectric matrix)
  average eigenvalue GAMMA=   1.1078
  1.1078

 Free energy of the ion-electron system (eV)
  ---------------------------------------------------
  alpha Z        PSCENC =      3451.38679373
  Ewald energy   TEWEN  =    -31650.88542768
  -1/2 Hartree   DENC   =     -6006.55486507
  -V(xc)+E(xc)   XCENC  =      -349.92359257
  PAW double counting   =     27569.33530793   -26115.39267832
  entropy T*S    EENTRO =        -0.00067858
  eigenvalues    EBANDS =      -184.51108015
  atomic energy  EATOM  =     33197.19690173
  ---------------------------------------------------
  free energy    TOTEN  =       -89.34931897 eV

  energy without entropy =      -89.34864039  energy(sigma->0) =      -89.34897968


--------------------------------------------------------------------------------------------------------




----------------------------------------- Iteration    1(   7)  ---------------------------------------


    POTLOK:  VPU time    0.52: CPU time    0.52
    SETDIJ:  VPU time    0.91: CPU time    0.91
    EDDAV :  VPU time 2583.63: CPU time 2587.83
    DOS   :  VPU time    0.00: CPU time   -0.00
    CHARGE:  VPU time   88.19: CPU time   88.33
    MIXING:  VPU time    0.01: CPU time    0.01
    ------------------------------------------
      LOOP:  VPU time 2673.46: CPU time 2677.81

 eigenvalue-minimisations  : 87200
 total energy-change (2. order) : 0.2772190E+00  (-0.5655110E-01)
 number of electron  352.0000010 magnetization 
 augmentation part   168.3607424 magnetization 

 Broyden mixing:
  rms(total) = 0.15258E+00    rms(broyden)= 0.15258E+00
  rms(prec ) = 0.20289E+00
  weight for this iteration     100.00

 eigenvalues of (default mixing * dielectric matrix)
  average eigenvalue GAMMA=   1.7380
  1.0663  2.4096

 Free energy of the ion-electron system (eV)
  ---------------------------------------------------
  alpha Z        PSCENC =      3451.38679373
  Ewald energy   TEWEN  =    -31650.88542768
  -1/2 Hartree   DENC   =     -5953.61305612
  -V(xc)+E(xc)   XCENC  =      -351.88338038
  PAW double counting   =     27707.30819035   -26278.14670199
  entropy T*S    EENTRO =        -0.00078378
  eigenvalues    EBANDS =      -210.43463585
[...]
     68      -0.9083      2.00000
     69      -0.9077      2.00000
     70      -0.9075      2.00000
     71      -0.9072      2.00000
     72      -0.9072      2.00000
     73      -0.8780      2.00000
     74      -0.8777      2.00000
     75      -0.8764      2.00000
     76      -0.8764      2.00000
     77      -0.8763      2.00000
     78      -0.8763      2.00000
     79      -0.8750      2.00000
     80      -0.8746      2.00000
     81      -0.6195      2.00000
     82      -0.6195      2.00000
     83      -0.6182      2.00000
     84      -0.6177      2.00000
     85      -0.6165      2.00000
     86      -0.6161      2.00000
     87      -0.6161      2.00000
     88      -0.6161      2.00000
     89      -0.6161      2.00000
     90      -0.6161      2.00000
     91      -0.6160      2.00000
     92      -0.6160      2.00000
     93      -0.6159      2.00000
     94      -0.6159      2.00000
     95      -0.6158      2.00000
     96      -0.6158      2.00000
     97      -0.6158      2.00000
     98      -0.6158      2.00000
     99      -0.6158      2.00000
    100      -0.6155      2.00000
    101      -0.6142      2.00000
    102      -0.6137      2.00000
    103      -0.6124      2.00000
    104      -0.6124      2.00000
    105      -0.2369      2.00000
    106      -0.2356      2.00000
    107      -0.2356      2.00000
    108      -0.2335      2.00000
    109      -0.2334      2.00000
    110      -0.2333      2.00000
    111      -0.2333      2.00000
    112      -0.2331      2.00000
    113      -0.2329      2.00000
    114      -0.2329      2.00000
    115      -0.2329      2.00000
    116      -0.2329      2.00000
    117      -0.2328      2.00000
    118      -0.2328      2.00000
    119      -0.2328      2.00000
    120      -0.2328      2.00000
    121      -0.2326      2.00000
    122      -0.2324      2.00000
    123      -0.2324      2.00000
    124      -0.2323      2.00000
    125      -0.2321      2.00000
    126      -0.2301      2.00000
    127      -0.2301      2.00000
    128      -0.2288      2.00000
    129       0.1105      2.00000
    130       0.1118      2.00000
    131       0.1119      2.00000
    132       0.1119      2.00000
    133       0.1129      2.00000
    134       0.1129      2.00000
    135       0.1131      2.00000
    136       0.1132      2.00000
    137       0.1133      2.00000
    138       0.1134      2.00000
    139       0.1136      2.00000
    140       0.1136      2.00000
    141       0.1146      2.00000
    142       0.1146      2.00000
    143       0.1146      2.00000
    144       0.1160      2.00000
    145       0.8859      2.00000
    146       0.8859      2.00000
    147       0.8862      2.00000
    148       0.8864      2.00000
    149       0.8864      2.00000
    150       0.8864      2.00000
    151       0.8864      2.00000
    152       0.8865      2.00000
    153       0.8865      2.00000
    154       0.8866      2.00000
    155       0.8866      2.00000
    156       0.8867      2.00000
    157       0.8868      2.00000
    158       0.8869      2.00000
    159       0.8869      2.00000
    160       0.8870      2.00000
    161       0.8870      2.00000
    162       0.8871      2.00000
    163       0.8871      2.00000
    164       0.8871      2.00000
    165       0.8871      2.00000
    166       0.8873      2.00000
    167       0.8876      2.00000
    168       0.8876      2.00000
    169       4.8863      0.00000
    170       4.8882      0.00000
    171       4.8882      0.00000
    172       4.8906      0.00000
    173       4.8911      0.00000
    174       4.8912      0.00000
    175       4.8912      0.00000
    176       4.8913      0.00000
    177       4.8914      0.00000
    178       4.8914      0.00000
    179       4.8914      0.00000
    180       4.8914      0.00000
    181       4.8917      0.00000
    182       4.8917      0.00000
    183       4.8917      0.00000
    184       4.8917      0.00000
    185       4.8918      0.00000
    186       4.8919      0.00000
    187       4.8919      0.00000
    188       4.8919      0.00000
    189       4.8924      0.00000
    190       4.8949      0.00000
    191       4.8949      0.00000
    192       4.8968      0.00000
    193      10.1736      0.00000
    194      10.1738      0.00000
    195      10.1748      0.00000
    196      10.1776      0.00000
    197      10.1779      0.00000
    198      10.1785      0.00000
    199      10.1786      0.00000
    200      10.1789      0.00000
    201      10.1789      0.00000
    202      10.1789      0.00000
    203      10.1790      0.00000
    204      10.1791      0.00000
    205      10.1792      0.00000
    206      10.1792      0.00000
    207      10.1795      0.00000
    208      10.1797      0.00000
    209      10.1801      0.00000
    210      10.1811      0.00000
    211      10.1825      0.00000
    212      10.1832      0.00000


--------------------------------------------------------------------------------------------------------


 soft charge-density along one line, spin component           1
         0         1         2         3         4         5         6         7         8         9
 total charge-density along one line
 
 pseudopotential strength for first ion, spin component:           1
-11.855  -0.000  -0.000  -0.000   0.000   0.070   0.000  -0.000
 -0.000 -11.855   0.000  -0.000   0.000   0.000   0.070  -0.000
 -0.000   0.000 -11.844   0.000  -0.000  -0.000  -0.000   0.069
 -0.000  -0.000   0.000 -11.855  -0.000   0.000   0.000  -0.000
  0.000   0.000  -0.000  -0.000 -11.844  -0.000  -0.000   0.000
  0.070   0.000  -0.000   0.000  -0.000   0.469  -0.000   0.000
  0.000   0.070  -0.000   0.000  -0.000  -0.000   0.469   0.000
 -0.000  -0.000   0.069  -0.000   0.000   0.000   0.000   0.469
  0.000   0.000  -0.000   0.070   0.000  -0.000  -0.000   0.000
 -0.000  -0.000   0.000   0.000   0.069   0.000   0.000  -0.000
  0.000   0.000   0.000   0.000  -0.000  -0.000  -0.000  -0.000
 -0.000  -0.000  -0.000  -0.000   0.000   0.000   0.000   0.000
  0.000  -0.000   0.000  -0.000  -0.000   0.000   0.000  -0.000
 -0.000  -0.000   0.000   0.000  -0.000   0.000   0.000   0.000
 -0.000  -0.000  -0.000  -0.000   0.000   0.000   0.000  -0.000
  0.000   0.000  -0.000   0.000   0.000  -0.000  -0.000   0.000
  0.000   0.000  -0.000   0.000   0.000  -0.000  -0.000   0.000
  0.000   0.000  -0.000   0.000   0.000  -0.000  -0.000   0.000
 total augmentation occupancy for first ion, spin component:           1
  1.935   0.000  -0.001  -0.000  -0.000  -0.009  -0.000   0.000   0.000   0.000   0.005  -0.000   0.001   0.000  -0.000   0.000
  0.000   1.939  -0.001  -0.001  -0.001  -0.000  -0.013   0.002   0.000   0.000   0.004  -0.001   0.000   0.000  -0.000  -0.000
 -0.001  -0.001   1.966  -0.001  -0.003   0.000   0.002  -0.047   0.001   0.002   0.014   0.002  -0.000  -0.000  -0.000  -0.000
 -0.000  -0.001  -0.001   1.942   0.000   0.000   0.000   0.001  -0.016   0.001   0.003  -0.001   0.000   0.000  -0.000  -0.000
 -0.000  -0.001  -0.003   0.000   1.957   0.000   0.000   0.002   0.001  -0.039   0.008   0.001   0.000   0.000   0.000  -0.000
 -0.009  -0.000   0.000   0.000   0.000   0.100   0.000   0.001   0.000  -0.000  -0.002   0.001   0.001  -0.000  -0.000  -0.000
 -0.000  -0.013   0.002   0.000   0.000   0.000   0.103  -0.002  -0.000   0.001  -0.001   0.001   0.000  -0.000   0.000   0.000
  0.000   0.002  -0.047   0.001   0.002   0.001  -0.002   0.089  -0.002  -0.001  -0.012  -0.000   0.000   0.000  -0.000   0.000
  0.000   0.000   0.001  -0.016   0.001   0.000  -0.000  -0.002   0.106  -0.002   0.000   0.002  -0.000   0.001   0.000   0.000
  0.000   0.000   0.002   0.001  -0.039  -0.000   0.001  -0.001  -0.002   0.084  -0.007  -0.000  -0.000  -0.000   0.001   0.000
  0.005   0.004   0.014   0.003   0.008  -0.002  -0.001  -0.012   0.000  -0.007   1.098  -0.398   0.000  -0.000   0.002   0.000
 -0.000  -0.001   0.002  -0.001   0.001   0.001   0.001  -0.000   0.002  -0.000  -0.398   0.219   0.000  -0.000  -0.001  -0.000
  0.001   0.000  -0.000   0.000   0.000   0.001   0.000   0.000  -0.000  -0.000   0.000   0.000   0.128   0.000   0.002  -0.007
  0.000   0.000  -0.000   0.000   0.000  -0.000  -0.000   0.000   0.001  -0.000  -0.000  -0.000   0.000   0.134  -0.001  -0.000
 -0.000  -0.000  -0.000  -0.000   0.000  -0.000   0.000  -0.000   0.000   0.001   0.002  -0.001   0.002  -0.001   0.131  -0.000
  0.000  -0.000  -0.000  -0.000  -0.000  -0.000   0.000   0.000   0.000   0.000   0.000  -0.000  -0.007  -0.000  -0.000   0.001
 -0.000  -0.000   0.000   0.000   0.000   0.000   0.000  -0.000  -0.000   0.000   0.000   0.000  -0.000  -0.008  -0.000   0.000
  0.000  -0.000  -0.000   0.000   0.000  -0.000  -0.000   0.000  -0.000  -0.000  -0.000   0.000  -0.000  -0.000  -0.007   0.000


------------------------ aborting loop because EDIFF is reached ----------------------------------------




--------------------------------------------------------------------------------------------------------


    CHARGE:  VPU time   87.94: CPU time   88.22
    FORLOC:  VPU time    0.09: CPU time    0.09
    FORNL :  VPU time  655.38: CPU time  656.30
    STRESS:  VPU time 3498.26: CPU time 3503.79
    FORCOR:  VPU time    0.59: CPU time    0.59
    FORHAR:  VPU time    0.19: CPU time    0.19
    MIXING:  VPU time    0.02: CPU time    0.02


--------------------------------------------------------------------------------------------------------



  FREE ENERGIE OF THE ION-ELECTRON SYSTEM (eV)
  ---------------------------------------------------
  free  energy   TOTEN  =       -88.957600 eV

  energy  without entropy=      -88.956757  energy(sigma->0) =      -88.957178
 

  FORCE on cell =-STRESS in cart. coord.  units (eV/reduce length):
  Direction    X        Y        Z        XY       YZ       ZX
  --------------------------------------------------------------------------------------
  Alpha Z   3451.39   3451.39   3451.39
  Ewald   -10550.37 -10550.33 -10550.33     -0.00      0.00      0.00
  Hartree   1971.14   1971.17   1971.17     -0.00     -0.00     -0.00
  E(xc)    -1866.59  -1866.59  -1866.59      0.00      0.00     -0.00
  Local     3387.82   3387.75   3387.75     -0.00     -0.00      0.00
  n-local  -2065.51  -2069.72  -2061.30      2.09      1.31      0.53
  augment   1343.29   1343.29   1343.29     -0.00     -0.00     -0.00
  Kinetic   4363.84   4356.89   4370.80      0.97     -0.58     -2.12
  -------------------------------------------------------------------------------------
  Total       35.01     35.01     35.01      0.00      0.00      0.00
  in kB      106.45    106.45    106.45      0.00      0.00      0.00
  external pressure =      106.45 kB  Pullay stress =        0.00 kB


 VOLUME and BASIS-vectors are now :
 -----------------------------------------------------------------------------
  energy-cutoff  :      750.00
  volume of cell :      526.86
      direct lattice vectors                 reciprocal lattice vectors
     8.076656076  0.000000000  0.000000000     0.123813617  0.000000000  0.000000000
     0.000000000  8.076656076  0.000000000     0.000000000  0.123813617  0.000000000
     0.000000000  0.000000000  8.076656076     0.000000000  0.000000000  0.123813617

  length of vectors
     8.076656076  8.076656076  8.076656076     0.123813617  0.123813617  0.123813617


 FORCES acting on ions
    electron-ion (+dipol)            ewald-force                    non-local-force                 convergence-correction
 -----------------------------------------------------------------------------------------------
   0.425E+01 -.101E-12 0.962E-07   -.429E+01 0.000E+00 0.568E-13   -.221E-01 0.105E-19 -.369E-20   -.781E-06 0.439E-14 -.622E-13
   -.112E+01 0.209E-13 -.978E-07   0.113E+01 -.711E-13 -.426E-13   -.876E-02 -.321E-20 0.181E-19   -.130E-05 0.177E-13 -.132E-12
   0.356E+00 0.528E-12 0.545E-10   -.359E+00 -.320E-13 -.249E-13   0.277E-02 0.647E-20 0.126E-20   -.554E-06 -.476E-13 -.643E-13
   -.287E+00 0.433E-11 0.541E-10   0.282E+00 -.284E-13 -.568E-13   0.436E-02 0.187E-19 -.568E-21   0.142E-05 -.339E-13 -.126E-12
   0.356E+00 -.939E-13 0.488E-10   -.359E+00 -.391E-13 -.213E-13   0.277E-02 -.177E-20 0.414E-20   -.112E-06 -.839E-14 0.930E-14
   -.287E+00 -.124E-12 0.499E-10   0.282E+00 -.426E-13 -.114E-12   0.436E-02 -.100E-20 -.208E-20   0.133E-05 -.291E-14 0.406E-13
   0.149E+00 0.521E-12 -.905E-10   -.148E+00 -.213E-13 0.284E-13   -.727E-03 -.224E-20 0.898E-20   -.109E-05 -.344E-13 -.201E-13
   -.138E+00 -.325E-11 -.888E-10   0.139E+00 -.284E-13 0.000E+00   -.692E-03 0.189E-20 -.326E-20   0.116E-05 -.142E-13 -.188E-13
   -.539E+00 -.104E+01 0.449E-10   0.545E+00 0.105E+01 -.355E-13   0.406E-02 0.203E-02 -.194E-20   0.278E-06 -.699E-06 -.112E-12
   -.543E+00 0.103E+01 0.470E-10   0.548E+00 -.104E+01 -.782E-13   0.409E-02 -.205E-02 -.631E-20   0.798E-07 0.503E-06 -.101E-12
   -.539E+00 0.104E+01 0.451E-10   0.545E+00 -.105E+01 -.426E-13   0.406E-02 -.203E-02 -.310E-20   0.278E-06 0.699E-06 -.993E-13
   -.543E+00 -.103E+01 0.470E-10   0.548E+00 0.104E+01 -.426E-13   0.409E-02 0.205E-02 0.105E-19   0.798E-07 -.503E-06 -.846E-13
   -.148E-01 -.863E-01 -.630E-10   0.166E-01 0.860E-01 -.213E-13   -.156E-02 0.296E-03 -.882E-21   -.337E-06 -.152E-06 0.583E-14
   -.165E-01 0.862E-01 -.672E-10   0.183E-01 -.859E-01 -.213E-13   -.154E-02 -.329E-03 0.301E-20   -.294E-06 0.154E-06 -.586E-14
   -.148E-01 0.863E-01 -.630E-10   0.166E-01 -.860E-01 0.000E+00   -.156E-02 -.296E-03 0.135E-21   -.337E-06 0.152E-06 0.675E-14
   -.165E-01 -.862E-01 -.681E-10   0.183E-01 0.859E-01 0.000E+00   -.154E-02 0.329E-03 0.638E-20   -.294E-06 -.154E-06 -.682E-14
   -.539E+00 -.703E-13 -.104E+01   0.545E+00 -.284E-13 0.105E+01   0.406E-02 -.386E-20 0.203E-02   0.192E-06 0.126E-14 -.625E-06
   -.543E+00 -.188E-12 0.103E+01   0.548E+00 -.284E-13 -.104E+01   0.409E-02 -.806E-20 -.205E-02   -.658E-08 0.958E-14 0.430E-06
   -.148E-01 0.502E-12 -.863E-01   0.166E-01 0.107E-13 0.860E-01   -.156E-02 0.358E-20 0.296E-03   -.314E-06 -.126E-13 -.775E-07
   -.165E-01 -.523E-11 0.862E-01   0.183E-01 0.107E-13 -.859E-01   -.154E-02 -.968E-20 -.329E-03   -.271E-06 -.421E-13 0.800E-07
   -.539E+00 -.109E-12 0.104E+01   0.545E+00 -.426E-13 -.105E+01   0.406E-02 0.185E-20 -.203E-02   0.192E-06 0.799E-14 0.625E-06
   -.543E+00 -.148E-12 -.103E+01   0.548E+00 -.142E-13 0.104E+01   0.409E-02 0.196E-20 0.205E-02   -.658E-08 0.181E-13 -.430E-06
   -.148E-01 0.541E-12 0.863E-01   0.166E-01 -.284E-13 -.860E-01   -.156E-02 -.269E-20 -.296E-03   -.314E-06 -.156E-13 0.775E-07
   -.165E-01 -.614E-11 -.862E-01   0.183E-01 -.284E-13 0.859E-01   -.154E-02 -.205E-20 0.329E-03   -.271E-06 -.502E-13 -.800E-07
   0.673E+00 0.263E-02 0.263E-02   -.677E+00 -.264E-02 -.264E-02   0.199E-02 -.940E-05 -.940E-05   -.588E-07 0.117E-07 0.111E-07
   -.378E+00 -.766E-03 -.766E-03   0.381E+00 0.790E-03 0.790E-03   -.254E-02 -.199E-04 -.199E-04   0.475E-06 -.104E-06 -.104E-06
   0.673E+00 -.263E-02 0.263E-02   -.677E+00 0.264E-02 -.264E-02   0.199E-02 0.940E-05 -.940E-05   -.588E-07 -.117E-07 0.111E-07
   -.378E+00 0.766E-03 -.766E-03   0.381E+00 -.790E-03 0.790E-03   -.254E-02 0.199E-04 -.199E-04   0.475E-06 0.104E-06 -.104E-06
   0.673E+00 0.263E-02 -.263E-02   -.677E+00 -.264E-02 0.264E-02   0.199E-02 -.940E-05 0.940E-05   -.588E-07 0.117E-07 -.111E-07
   -.378E+00 -.766E-03 0.766E-03   0.381E+00 0.790E-03 -.790E-03   -.254E-02 -.199E-04 0.199E-04   0.475E-06 -.104E-06 0.104E-06
   0.673E+00 -.263E-02 -.263E-02   -.677E+00 0.264E-02 0.264E-02   0.199E-02 0.940E-05 0.940E-05   -.588E-07 -.117E-07 -.111E-07
   -.378E+00 0.766E-03 0.766E-03   0.381E+00 -.790E-03 -.790E-03   -.254E-02 0.199E-04 0.199E-04   0.475E-06 0.104E-06 0.104E-06
 -----------------------------------------------------------------------------------------------
   0.144E-06 -.170E-10 -.853E-09   0.189E-13 0.522E-13 0.636E-12   0.230E-05 0.776E-18 -.271E-19   0.394E-06 -.525E-12 -.114E-11
 
 
 POSITION                                       TOTAL-FORCE (eV/Angst)
 -----------------------------------------------------------------------------------
      0.01000      0.00000      0.00000        -0.070413     -0.000000     -0.000000
      4.03833      0.00000      0.00000         0.001289      0.000000      0.000000
      0.00000      4.03833      0.00000        -0.000392      0.000000      0.000000
      4.03833      4.03833      0.00000        -0.000408      0.000000      0.000000
      0.00000      0.00000      4.03833        -0.000392     -0.000000      0.000000
      4.03833      0.00000      4.03833        -0.000408     -0.000000      0.000000
      0.00000      4.03833      4.03833        -0.000243     -0.000000      0.000000
      4.03833      4.03833      4.03833        -0.000010     -0.000000      0.000000
      2.01916      2.01916      0.00000         0.009429      0.011072     -0.000000
      6.05749      2.01916      0.00000         0.009170     -0.010697     -0.000000
      2.01916      6.05749      0.00000         0.009429     -0.011072      0.000000
      6.05749      6.05749      0.00000         0.009170      0.010697     -0.000000
      2.01916      2.01916      4.03833         0.000219      0.000034     -0.000000
      6.05749      2.01916      4.03833         0.000218     -0.000027     -0.000000
      2.01916      6.05749      4.03833         0.000219     -0.000034     -0.000000
      6.05749      6.05749      4.03833         0.000218      0.000027     -0.000000
      2.01916      0.00000      2.01916         0.009429      0.000000      0.011072
      6.05749      0.00000      2.01916         0.009170     -0.000000     -0.010697
      2.01916      4.03833      2.01916         0.000219      0.000000      0.000034
      6.05749      4.03833      2.01916         0.000218      0.000000     -0.000027
      2.01916      0.00000      6.05749         0.009429     -0.000000     -0.011072
      6.05749      0.00000      6.05749         0.009170     -0.000000      0.010697
      2.01916      4.03833      6.05749         0.000219      0.000000     -0.000034
      6.05749      4.03833      6.05749         0.000218     -0.000000      0.000027
      0.00000      2.01916      2.01916        -0.001824     -0.000019     -0.000019
      4.03833      2.01916      2.01916         0.000533      0.000003      0.000003
      0.00000      6.05749      2.01916        -0.001824      0.000019     -0.000019
      4.03833      6.05749      2.01916         0.000533     -0.000003      0.000003
      0.00000      2.01916      6.05749        -0.001824     -0.000019      0.000019
      4.03833      2.01916      6.05749         0.000533      0.000003     -0.000003
      0.00000      6.05749      6.05749        -0.001824      0.000019      0.000019
      4.03833      6.05749      6.05749         0.000533     -0.000003     -0.000003
 -----------------------------------------------------------------------------------
    total drift:                                0.000003     -0.000000     -0.000000


--------------------------------------------------------------------------------------------------------



 mean value of Nose-termostat <S>:     1.000 mean value of <T> :     0.000
 mean temperature <T/S>/<1/S>  :     0.000

     LOOP+:  VPU time47349.56: CPU time47456.70
  
  
 General timing and accounting informations for this job:
 ========================================================
  
                  Total CPU time used (sec):    47762.384
                            User time (sec):    47054.325
                          System time (sec):      708.059
                         Elapsed time (sec):    47870.424
  
                   Maximum memory used (kb):    10024324.
                   Average memory used (kb):           0.
  
                          Minor page faults:      1275732
                          Major page faults:            5
                 Voluntary context switches:         1216
