32   
1    

1    
  0.0100000000000000   0.0000000000000000   0.0000000000000000
  -0.0704130700   -0.0000000000   -0.0000000000
   0.0012893400    0.0000000000    0.0000000000
  -0.0003918300    0.0000000000    0.0000000000
  -0.0004076500    0.0000000000    0.0000000000
  -0.0003918300   -0.0000000000    0.0000000000
  -0.0004076500   -0.0000000000    0.0000000000
  -0.0002427900   -0.0000000000    0.0000000000
  -0.0000101900   -0.0000000000    0.0000000000
   0.0094290600    0.0110721500   -0.0000000000
   0.0091697600   -0.0106972500   -0.0000000000
   0.0094290600   -0.0110721500    0.0000000000
   0.0091697600    0.0106972500   -0.0000000000
   0.0002192300    0.0000336700   -0.0000000000
   0.0002175600   -0.0000269100   -0.0000000000
   0.0002192300   -0.0000336700   -0.0000000000
   0.0002175600    0.0000269100   -0.0000000000
   0.0094290600    0.0000000000    0.0110721500
   0.0091697600   -0.0000000000   -0.0106972500
   0.0002192300    0.0000000000    0.0000336700
   0.0002175600    0.0000000000   -0.0000269100
   0.0094290600   -0.0000000000   -0.0110721500
   0.0091697600   -0.0000000000    0.0106972500
   0.0002192300    0.0000000000   -0.0000336700
   0.0002175600   -0.0000000000    0.0000269100
  -0.0018242900   -0.0000190600   -0.0000190600
   0.0005326000    0.0000031200    0.0000031200
  -0.0018242900    0.0000190600   -0.0000190600
   0.0005326000   -0.0000031200    0.0000031200
  -0.0018242900   -0.0000190600    0.0000190600
   0.0005326000    0.0000031200   -0.0000031200
  -0.0018242900    0.0000190600    0.0000190600
   0.0005326000   -0.0000031200   -0.0000031200
