mesh: [    48,    48,    48 ]
nqpoint: 2600   
reciprocal_lattice:
- [   0.24762723,   0.00000000,   0.00000000 ] # a*
- [   0.00000000,   0.24762723,   0.00000000 ] # b*
- [   0.00000000,   0.00000000,   0.24762723 ] # c*
natom:   4      
lattice:
- [     4.038328038167948,     0.000000000000000,     0.000000000000000 ] # a
- [     0.000000000000000,     4.038328038167948,     0.000000000000000 ] # b
- [     0.000000000000000,     0.000000000000000,     4.038328038167948 ] # c
points:
- symbol: Ag # 1
  coordinates: [  0.000000000000000,  0.000000000000000,  0.000000000000000 ]
  mass: 107.868200
- symbol: Ag # 2
  coordinates: [  0.500000000000000,  0.500000000000000,  0.000000000000000 ]
  mass: 107.868200
- symbol: Ag # 3
  coordinates: [  0.500000000000000,  0.000000000000000,  0.500000000000000 ]
  mass: 107.868200
- symbol: Ag # 4
  coordinates: [  0.000000000000000,  0.500000000000000,  0.500000000000000 ]
  mass: 107.868200
phonon:
- q-position: [    0.0104167,    0.0104167,    0.0104167 ]
  weight: 8    
  band:
  - # 1
    frequency:     0.0877919294
  - # 2
    frequency:     0.0877919294
  - # 3
    frequency:     0.1986883518
  - # 4
    frequency:     3.8599680742
  - # 5
    frequency:     3.8599680742
  - # 6
    frequency:     3.8599680742
  - # 7
    frequency:     3.8627091305
  - # 8
    frequency:     3.8627091305
  - # 9
    frequency:     3.8627091305
  - # 10
    frequency:     5.8722490905
  - # 11
    frequency:     5.8722490905
  - # 12
    frequency:     5.8722490905

- q-position: [    0.0312500,    0.0104167,    0.0104167 ]
  weight: 24   
  band:
  - # 1
    frequency:     0.1776416641
  - # 2
    frequency:     0.1972359915
  - # 3
    frequency:     0.3614519416
  - # 4
    frequency:     3.8557463392
  - # 5
    frequency:     3.8582626681
  - # 6
    frequency:     3.8582626681
  - # 7
    frequency:     3.8584783959
  - # 8
    frequency:     3.8680323132
  - # 9
    frequency:     3.8680323132
  - # 10
    frequency:     5.8668255915
  - # 11
    frequency:     5.8680495596
  - # 12
    frequency:     5.8680495596

- q-position: [    0.0520833,    0.0104167,    0.0104167 ]
  weight: 24   
  band:
  - # 1
    frequency:     0.3018892096
  - # 2
    frequency:     0.3180668620
  - # 3
    frequency:     0.5481731026
  - # 4
    frequency:     3.8473082487
  - # 5
    frequency:     3.8500223353
  - # 6
    frequency:     3.8563052106
  - # 7
    frequency:     3.8563052106
  - # 8
    frequency:     3.8772170258
  - # 9
    frequency:     3.8772170258
  - # 10
    frequency:     5.8559757869
  - # 11
    frequency:     5.8596676309
  - # 12
    frequency:     5.8596676309

- q-position: [    0.0729167,    0.0104167,    0.0104167 ]
  weight: 24   
  band:
  - # 1
    frequency:     0.4280578103
  - # 2
    frequency:     0.4407400749
  - # 3
    frequency:     0.7423013058
  - # 4
    frequency:     3.8346645478
  - # 5
    frequency:     3.8373517518
  - # 6
    frequency:     3.8537357438
  - # 7
    frequency:     3.8537357438
  - # 8
    frequency:     3.8906066258
  - # 9
    frequency:     3.8906066258
  - # 10
    frequency:     5.8396941608
  - # 11
    frequency:     5.8471375025
  - # 12
    frequency:     5.8471375025

- q-position: [    0.0937500,    0.0104167,    0.0104167 ]
  weight: 24   
  band:
  - # 1
    frequency:     0.5535634546
  - # 2
    frequency:     0.5637244180
  - # 3
    frequency:     0.9390392219
  - # 4
    frequency:     3.8178313199
  - # 5
    frequency:     3.8204828137
  - # 6
    frequency:     3.8504790042
  - # 7
    frequency:     3.8504790042
  - # 8
    frequency:     3.9082514588
  - # 9
    frequency:     3.9082514588
  - # 10
    frequency:     5.8179726819
  - # 11
    frequency:     5.8305103024
  - # 12
    frequency:     5.8305103024

- q-position: [    0.1145833,    0.0104167,    0.0104167 ]
  weight: 24   
  band:
  - # 1
    frequency:     0.6781552161
  - # 2
    frequency:     0.6864922734
  - # 3
    frequency:     1.1363452482
  - # 4
    frequency:     3.7968299453
  - # 5
    frequency:     3.7994370115
  - # 6
    frequency:     3.8465505604
  - # 7
    frequency:     3.8465505604
  - # 8
    frequency:     3.9301026868
  - # 9
    frequency:     3.9301026868
  - # 10
    frequency:     5.7908010901
  - # 11
    frequency:     5.8098538861
  - # 12
    frequency:     5.8098538861

- q-position: [    0.1354167,    0.0104167,    0.0104167 ]
  weight: 24   
  band:
  - # 1
    frequency:     0.8017930428
  - # 2
    frequency:     0.8087614493
  - # 3
    frequency:     1.3331341243
  - # 4
    frequency:     3.7716870474
  - # 5
    frequency:     3.7742411007
  - # 6
    frequency:     3.8420009648
  - # 7
    frequency:     3.8420009648
  - # 8
    frequency:     3.9560680723
  - # 9
    frequency:     3.9560680723
  - # 10
    frequency:     5.7581672731
  - # 11
    frequency:     5.7852525689
  - # 12
    frequency:     5.7852525689

- q-position: [    0.1562500,    0.0104167,    0.0104167 ]
  weight: 24   
  band:
  - # 1
    frequency:     0.9244310686
  - # 2
    frequency:     0.9303335866
  - # 3
    frequency:     1.5287156395
  - # 4
    frequency:     3.7424344252
  - # 5
    frequency:     3.7449270312
  - # 6
    frequency:     3.8368995227
  - # 7
    frequency:     3.8368995227
  - # 8
    frequency:     3.9860280981
  - # 9
    frequency:     3.9860280981
  - # 10
    frequency:     5.7200577274
  - # 11
    frequency:     5.7568067936
  - # 12
    frequency:     5.7568067936

- q-position: [    0.1770833,    0.0104167,    0.0104167 ]
  weight: 24   
  band:
  - # 1
    frequency:     1.0460003818
  - # 2
    frequency:     1.0510454560
  - # 3
    frequency:     1.7225862101
  - # 4
    frequency:     3.7091089736
  - # 5
    frequency:     3.7115318638
  - # 6
    frequency:     3.8313283092
  - # 7
    frequency:     3.8313283092
  - # 8
    frequency:     4.0198417801
  - # 9
    frequency:     4.0198417801
  - # 10
    frequency:     5.6764580968
  - # 11
    frequency:     5.7246327358
  - # 12
    frequency:     5.7246327358

- q-position: [    0.1979167,    0.0104167,    0.0104167 ]
  weight: 24   
  band:
  - # 1
    frequency:     1.1664146884
  - # 2
    frequency:     1.1707508222
  - # 3
    frequency:     1.9143412729
  - # 4
    frequency:     3.6717525920
  - # 5
    frequency:     3.6740976740
  - # 6
    frequency:     3.8253790944
  - # 7
    frequency:     3.8253790944
  - # 8
    frequency:     4.0573494987
  - # 9
    frequency:     4.0573494987
  - # 10
    frequency:     5.6273537829
  - # 11
    frequency:     5.6888618488
  - # 12
    frequency:     5.6888618488

- q-position: [    0.2187500,    0.0104167,    0.0104167 ]
  weight: 24   
  band:
  - # 1
    frequency:     1.2855763889
  - # 2
    frequency:     1.2893126533
  - # 3
    frequency:     2.1036347572
  - # 4
    frequency:     3.6304120810
  - # 5
    frequency:     3.6326714442
  - # 6
    frequency:     3.8191511551
  - # 7
    frequency:     3.8191511551
  - # 8
    frequency:     4.0983748611
  - # 9
    frequency:     4.0983748611
  - # 10
    frequency:     5.5727306169
  - # 11
    frequency:     5.6496403506
  - # 12
    frequency:     5.6496403506

- q-position: [    0.2395833,    0.0104167,    0.0104167 ]
  weight: 24   
  band:
  - # 1
    frequency:     1.4033807685
  - # 2
    frequency:     1.4065994193
  - # 3
    frequency:     2.2901588921
  - # 4
    frequency:     3.5851390289
  - # 5
    frequency:     3.5873049446
  - # 6
    frequency:     3.8127493436
  - # 7
    frequency:     3.8127493436
  - # 8
    frequency:     4.1427262185
  - # 9
    frequency:     4.1427262185
  - # 10
    frequency:     5.5125755870
  - # 11
    frequency:     5.6071286551
  - # 12
    frequency:     5.6071286551

- q-position: [    0.2604167,    0.0104167,    0.0104167 ]
  weight: 24   
  band:
  - # 1
    frequency:     1.5197186967
  - # 2
    frequency:     1.5224832042
  - # 3
    frequency:     2.4736335611
  - # 4
    frequency:     3.5359896879
  - # 5
    frequency:     3.5380546038
  - # 6
    frequency:     3.8062822059
  - # 7
    frequency:     3.8062822059
  - # 8
    frequency:     4.1901980466
  - # 9
    frequency:     4.1901980466
  - # 10
    frequency:     5.4468776090
  - # 11
    frequency:     5.5615007517
  - # 12
    frequency:     5.5615007517

- q-position: [    0.2812500,    0.0104167,    0.0104167 ]
  weight: 24   
  band:
  - # 1
    frequency:     1.6344783699
  - # 2
    frequency:     1.6368386981
  - # 3
    frequency:     2.6538004473
  - # 4
    frequency:     3.4830248411
  - # 5
    frequency:     3.4849813703
  - # 6
    frequency:     3.7998600830
  - # 7
    frequency:     3.7998600830
  - # 8
    frequency:     4.2405722648
  - # 9
    frequency:     4.2405722648
  - # 10
    frequency:     5.3756283333
  - # 11
    frequency:     5.5129435353
  - # 12
    frequency:     5.5129435353

- q-position: [    0.3020833,    0.0104167,    0.0104167 ]
  weight: 24   
  band:
  - # 1
    frequency:     1.7475464686
  - # 2
    frequency:     1.7495426496
  - # 3
    frequency:     2.8304197127
  - # 4
    frequency:     3.4263096614
  - # 5
    frequency:     3.4281505644
  - # 6
    frequency:     3.7935931820
  - # 7
    frequency:     3.7935931820
  - # 8
    frequency:     4.2936195169
  - # 9
    frequency:     4.2936195169
  - # 10
    frequency:     5.2988229755
  - # 11
    frequency:     5.4616560907
  - # 12
    frequency:     5.4616560907

- q-position: [    0.3229167,    0.0104167,    0.0104167 ]
  weight: 24   
  band:
  - # 1
    frequency:     1.8588089548
  - # 2
    frequency:     1.8604735752
  - # 3
    frequency:     3.0032680726
  - # 4
    frequency:     3.3659135625
  - # 5
    frequency:     3.3676317232
  - # 6
    frequency:     3.7875896331
  - # 7
    frequency:     3.7875896331
  - # 8
    frequency:     4.3491004234
  - # 9
    frequency:     4.3491004234
  - # 10
    frequency:     5.2164611624
  - # 11
    frequency:     5.4078489360
  - # 12
    frequency:     5.4078489360

- q-position: [    0.3437500,    0.0104167,    0.0104167 ]
  weight: 24   
  band:
  - # 1
    frequency:     1.9681516463
  - # 2
    frequency:     1.9695116184
  - # 3
    frequency:     3.1721376550
  - # 4
    frequency:     3.3019100440
  - # 5
    frequency:     3.3034984379
  - # 6
    frequency:     3.7819535551
  - # 7
    frequency:     3.7819535551
  - # 8
    frequency:     4.4067668039
  - # 9
    frequency:     4.4067668039
  - # 10
    frequency:     5.1285477832
  - # 11
    frequency:     5.3517432284
  - # 12
    frequency:     5.3517432284

- q-position: [    0.3645833,    0.0104167,    0.0104167 ]
  weight: 24   
  band:
  - # 1
    frequency:     2.0754606523
  - # 2
    frequency:     2.0765385037
  - # 3
    frequency:     3.2343765304
  - # 4
    frequency:     3.2358281861
  - # 5
    frequency:     3.3368353087
  - # 6
    frequency:     3.7767831644
  - # 7
    frequency:     3.7767831644
  - # 8
    frequency:     4.4663628690
  - # 9
    frequency:     4.4663628690
  - # 10
    frequency:     5.0350938347
  - # 11
    frequency:     5.2935699396
  - # 12
    frequency:     5.2935699396

- q-position: [    0.3854167,    0.0104167,    0.0104167 ]
  weight: 24   
  band:
  - # 1
    frequency:     2.1806227198
  - # 2
    frequency:     2.1814375508
  - # 3
    frequency:     3.1633942056
  - # 4
    frequency:     3.1647021574
  - # 5
    frequency:     3.4971821598
  - # 6
    frequency:     3.7721689610
  - # 7
    frequency:     3.7721689610
  - # 8
    frequency:     4.5276263751
  - # 9
    frequency:     4.5276263751
  - # 10
    frequency:     4.9361172534
  - # 11
    frequency:     5.2335690080
  - # 12
    frequency:     5.2335690080

- q-position: [    0.4062500,    0.0104167,    0.0104167 ]
  weight: 24   
  band:
  - # 1
    frequency:     2.2835255225
  - # 2
    frequency:     2.2840937307
  - # 3
    frequency:     3.0890478445
  - # 4
    frequency:     3.0902050762
  - # 5
    frequency:     3.6530133010
  - # 6
    frequency:     3.7681920327
  - # 7
    frequency:     3.7681920327
  - # 8
    frequency:     4.5902897292
  - # 9
    frequency:     4.5902897292
  - # 10
    frequency:     4.8316437225
  - # 11
    frequency:     5.1719884899
  - # 12
    frequency:     5.1719884899

- q-position: [    0.4270833,    0.0104167,    0.0104167 ]
  weight: 24   
  band:
  - # 1
    frequency:     2.3840579140
  - # 2
    frequency:     2.3843937508
  - # 3
    frequency:     3.0114256418
  - # 4
    frequency:     3.0124250197
  - # 5
    frequency:     3.7649225122
  - # 6
    frequency:     3.7649225122
  - # 7
    frequency:     3.8041775369
  - # 8
    frequency:     4.6540809924
  - # 9
    frequency:     4.6540809924
  - # 10
    frequency:     4.7217074490
  - # 11
    frequency:     5.1090837599
  - # 12
    frequency:     5.1090837599

- q-position: [    0.4479167,    0.0104167,    0.0104167 ]
  weight: 24   
  band:
  - # 1
    frequency:     2.4821101567
  - # 2
    frequency:     2.4822261623
  - # 3
    frequency:     2.9306190392
  - # 4
    frequency:     2.9314532339
  - # 5
    frequency:     3.7624182273
  - # 6
    frequency:     3.7624182273
  - # 7
    frequency:     3.9505371428
  - # 8
    frequency:     4.6063519000
  - # 9
    frequency:     4.7187245700
  - # 10
    frequency:     4.7187245700
  - # 11
    frequency:     5.0451169832
  - # 12
    frequency:     5.0451169832

- q-position: [    0.4687500,    0.0104167,    0.0104167 ]
  weight: 24   
  band:
  - # 1
    frequency:     2.5774814841
  - # 2
    frequency:     2.5775741360
  - # 3
    frequency:     2.8467225530
  - # 4
    frequency:     2.8473839472
  - # 5
    frequency:     3.7607235749
  - # 6
    frequency:     3.7607235749
  - # 7
    frequency:     4.0919676034
  - # 8
    frequency:     4.4856304934
  - # 9
    frequency:     4.7839402288
  - # 10
    frequency:     4.7839402288
  - # 11
    frequency:     4.9803582202
  - # 12
    frequency:     4.9803582202

- q-position: [    0.4895833,    0.0104167,    0.0104167 ]
  weight: 24   
  band:
  - # 1
    frequency:     2.6700523393
  - # 2
    frequency:     2.6703435647
  - # 3
    frequency:     2.7598336022
  - # 4
    frequency:     2.7603141819
  - # 5
    frequency:     3.7598686496
  - # 6
    frequency:     3.7598686496
  - # 7
    frequency:     4.2283573149
  - # 8
    frequency:     4.3596072378
  - # 9
    frequency:     4.8494173463
  - # 10
    frequency:     4.8494173463
  - # 11
    frequency:     4.9151112645
  - # 12
    frequency:     4.9151112645

- q-position: [    0.0312500,    0.0312500,    0.0104167 ]
  weight: 24   
  band:
  - # 1
    frequency:     0.1951928687
  - # 2
    frequency:     0.2609978378
  - # 3
    frequency:     0.4906620189
  - # 4
    frequency:     3.8526433789
  - # 5
    frequency:     3.8540320902
  - # 6
    frequency:     3.8540320902
  - # 7
    frequency:     3.8637930326
  - # 8
    frequency:     3.8637930326
  - # 9
    frequency:     3.8772194997
  - # 10
    frequency:     5.8626674855
  - # 11
    frequency:     5.8626674855
  - # 12
    frequency:     5.8638528081

- q-position: [    0.0520833,    0.0312500,    0.0104167 ]
  weight: 48   
  band:
  - # 1
    frequency:     0.2838193377
  - # 2
    frequency:     0.3609133267
  - # 3
    frequency:     0.6535658051
  - # 4
    frequency:     3.8455761581
  - # 5
    frequency:     3.8474203694
  - # 6
    frequency:     3.8520382239
  - # 7
    frequency:     3.8553201434
  - # 8
    frequency:     3.8729792330
  - # 9
    frequency:     3.8895707342
  - # 10
    frequency:     5.8519004657
  - # 11
    frequency:     5.8543683672
  - # 12
    frequency:     5.8554764052

- q-position: [    0.0729167,    0.0312500,    0.0104167 ]
  weight: 48   
  band:
  - # 1
    frequency:     0.4012443389
  - # 2
    frequency:     0.4725682545
  - # 3
    frequency:     0.8296350001
  - # 4
    frequency:     3.8329053040
  - # 5
    frequency:     3.8425299301
  - # 6
    frequency:     3.8426249742
  - # 7
    frequency:     3.8494071848
  - # 8
    frequency:     3.8863776717
  - # 9
    frequency:     3.9051345583
  - # 10
    frequency:     5.8357428581
  - # 11
    frequency:     5.8419623560
  - # 12
    frequency:     5.8429544837

- q-position: [    0.0937500,    0.0312500,    0.0104167 ]
  weight: 48   
  band:
  - # 1
    frequency:     0.5259637989
  - # 2
    frequency:     0.5889461138
  - # 3
    frequency:     1.0125426411
  - # 4
    frequency:     3.8160351391
  - # 5
    frequency:     3.8257244780
  - # 6
    frequency:     3.8376928032
  - # 7
    frequency:     3.8460655047
  - # 8
    frequency:     3.9040364938
  - # 9
    frequency:     3.9241674031
  - # 10
    frequency:     5.8141864498
  - # 11
    frequency:     5.8255004598
  - # 12
    frequency:     5.8263380744

- q-position: [    0.1145833,    0.0312500,    0.0104167 ]
  weight: 48   
  band:
  - # 1
    frequency:     0.6520724467
  - # 2
    frequency:     0.7073619021
  - # 3
    frequency:     1.1991189239
  - # 4
    frequency:     3.7949864093
  - # 5
    frequency:     3.8046411860
  - # 6
    frequency:     3.8327150331
  - # 7
    frequency:     3.8420294622
  - # 8
    frequency:     3.9259056400
  - # 9
    frequency:     3.9468326383
  - # 10
    frequency:     5.7872207536
  - # 11
    frequency:     5.8050503709
  - # 12
    frequency:     5.8056949052

- q-position: [    0.1354167,    0.0312500,    0.0104167 ]
  weight: 48   
  band:
  - # 1
    frequency:     0.7777990474
  - # 2
    frequency:     0.8265664425
  - # 3
    frequency:     1.3874337232
  - # 4
    frequency:     3.7697849382
  - # 5
    frequency:     3.7794031438
  - # 6
    frequency:     3.8274909432
  - # 7
    frequency:     3.8373498351
  - # 8
    frequency:     3.9518920525
  - # 9
    frequency:     3.9731974483
  - # 10
    frequency:     5.7548333967
  - # 11
    frequency:     5.7806961958
  - # 12
    frequency:     5.7811091349

- q-position: [    0.1562500,    0.0312500,    0.0104167 ]
  weight: 48   
  band:
  - # 1
    frequency:     0.9025366323
  - # 2
    frequency:     0.9458733363
  - # 3
    frequency:     1.5761914658
  - # 4
    frequency:     3.7404615574
  - # 5
    frequency:     3.7500438327
  - # 6
    frequency:     3.8219821428
  - # 7
    frequency:     3.8320959652
  - # 8
    frequency:     3.9818755270
  - # 9
    frequency:     4.0032536196
  - # 10
    frequency:     5.7170105976
  - # 11
    frequency:     5.7525381196
  - # 12
    frequency:     5.7526810233

- q-position: [    0.1770833,    0.0312500,    0.0104167 ]
  weight: 48   
  band:
  - # 1
    frequency:     1.0260406303
  - # 2
    frequency:     1.0648490106
  - # 3
    frequency:     1.7644620617
  - # 4
    frequency:     3.7070520266
  - # 5
    frequency:     3.7166020741
  - # 6
    frequency:     3.8161979374
  - # 7
    frequency:     3.8263499017
  - # 8
    frequency:     4.0157144295
  - # 9
    frequency:     4.0369368556
  - # 10
    frequency:     5.6737377223
  - # 11
    frequency:     5.7205265392
  - # 12
    frequency:     5.7206920074

- q-position: [    0.1979167,    0.0312500,    0.0104167 ]
  weight: 48   
  band:
  - # 1
    frequency:     1.1481836866
  - # 2
    frequency:     1.1831862459
  - # 3
    frequency:     1.9515399411
  - # 4
    frequency:     3.6695969437
  - # 5
    frequency:     3.6791219179
  - # 6
    frequency:     3.8101807329
  - # 7
    frequency:     3.8202033897
  - # 8
    frequency:     4.0532484966
  - # 9
    frequency:     4.0741410221
  - # 10
    frequency:     5.6249999148
  - # 11
    frequency:     5.6847769090
  - # 12
    frequency:     5.6852889448

- q-position: [    0.2187500,    0.0312500,    0.0104167 ]
  weight: 48   
  band:
  - # 1
    frequency:     1.2688741774
  - # 2
    frequency:     1.3006465296
  - # 3
    frequency:     2.1368642646
  - # 4
    frequency:     3.6281416493
  - # 5
    frequency:     3.6376525130
  - # 6
    frequency:     3.8039957664
  - # 7
    frequency:     3.8137557214
  - # 8
    frequency:     4.0943006925
  - # 9
    frequency:     4.1147279826
  - # 10
    frequency:     5.5707827930
  - # 11
    frequency:     5.6455781081
  - # 12
    frequency:     5.6464747198

- q-position: [    0.2395833,    0.0312500,    0.0104167 ]
  weight: 48   
  band:
  - # 1
    frequency:     1.3880281756
  - # 2
    frequency:     1.4170313782
  - # 3
    frequency:     2.3199717266
  - # 4
    frequency:     3.5827361247
  - # 5
    frequency:     3.5922479616
  - # 6
    frequency:     3.7977238525
  - # 7
    frequency:     3.8071118355
  - # 8
    frequency:     4.1386787281
  - # 9
    frequency:     4.1585343364
  - # 10
    frequency:     5.5110732003
  - # 11
    frequency:     5.6030902983
  - # 12
    frequency:     5.6044092497

- q-position: [    0.2604167,    0.0312500,    0.0104167 ]
  weight: 48   
  band:
  - # 1
    frequency:     1.5055601037
  - # 2
    frequency:     1.5321670378
  - # 3
    frequency:     2.5004677417
  - # 4
    frequency:     3.5334348861
  - # 5
    frequency:     3.5429671560
  - # 6
    frequency:     3.7914560662
  - # 7
    frequency:     3.8003804624
  - # 8
    frequency:     4.1861764468
  - # 9
    frequency:     4.2053761363
  - # 10
    frequency:     5.4458600049
  - # 11
    frequency:     5.5574872152
  - # 12
    frequency:     5.5592659552

- q-position: [    0.2812500,    0.0312500,    0.0104167 ]
  weight: 48   
  band:
  - # 1
    frequency:     1.6213801474
  - # 2
    frequency:     1.6458958516
  - # 3
    frequency:     2.6780083908
  - # 4
    frequency:     3.4802968774
  - # 5
    frequency:     3.4898735998
  - # 6
    frequency:     3.7852896350
  - # 7
    frequency:     3.7936722493
  - # 8
    frequency:     4.2365751457
  - # 9
    frequency:     4.2550523294
  - # 10
    frequency:     5.3751349358
  - # 11
    frequency:     5.5089555096
  - # 12
    frequency:     5.5112310878

- q-position: [    0.3020833,    0.0312500,    0.0104167 ]
  weight: 48   
  band:
  - # 1
    frequency:     1.7353940983
  - # 2
    frequency:     1.7580711652
  - # 3
    frequency:     2.8522888424
  - # 4
    frequency:     3.4233853578
  - # 5
    frequency:     3.4330352148
  - # 6
    frequency:     3.7793245810
  - # 7
    frequency:     3.7870978553
  - # 8
    frequency:     4.2896448540
  - # 9
    frequency:     4.3073473873
  - # 10
    frequency:     5.2988934476
  - # 11
    frequency:     5.4576940483
  - # 12
    frequency:     5.4605030135

- q-position: [    0.3229167,    0.0312500,    0.0104167 ]
  weight: 48   
  band:
  - # 1
    frequency:     1.8475040022
  - # 2
    frequency:     1.8685542103
  - # 3
    frequency:     3.0230357680
  - # 4
    frequency:     3.3627677872
  - # 5
    frequency:     3.3725241381
  - # 6
    frequency:     3.7736608440
  - # 7
    frequency:     3.7807660288
  - # 8
    frequency:     4.3451455730
  - # 9
    frequency:     4.3620334158
  - # 10
    frequency:     5.2171356017
  - # 11
    frequency:     5.4039131835
  - # 12
    frequency:     5.4072914631

- q-position: [    0.3437500,    0.0312500,    0.0104167 ]
  weight: 48   
  band:
  - # 1
    frequency:     1.9576090024
  - # 2
    frequency:     1.9772121473
  - # 3
    frequency:     3.1900022676
  - # 4
    frequency:     3.2985157027
  - # 5
    frequency:     3.3084165125
  - # 6
    frequency:     3.7683957336
  - # 7
    frequency:     3.7747816933
  - # 8
    frequency:     4.4028284688
  - # 9
    frequency:     4.4188719141
  - # 10
    frequency:     5.1298669574
  - # 11
    frequency:     5.3478340030
  - # 12
    frequency:     5.3518167589

- q-position: [    0.3645833,    0.0312500,    0.0104167 ]
  weight: 48   
  band:
  - # 1
    frequency:     2.0656061604
  - # 2
    frequency:     2.0839168115
  - # 3
    frequency:     3.2307045844
  - # 4
    frequency:     3.2407922784
  - # 5
    frequency:     3.3529644021
  - # 6
    frequency:     3.7636216292
  - # 7
    frequency:     3.7692440723
  - # 8
    frequency:     4.4624369997
  - # 9
    frequency:     4.4776152725
  - # 10
    frequency:     5.0370994623
  - # 11
    frequency:     5.2896875870
  - # 12
    frequency:     5.2943090414

- q-position: [    0.3854167,    0.0312500,    0.0104167 ]
  weight: 48   
  band:
  - # 1
    frequency:     2.1713911865
  - # 2
    frequency:     2.1885439043
  - # 3
    frequency:     3.1594137053
  - # 4
    frequency:     3.1697349716
  - # 5
    frequency:     3.5117187621
  - # 6
    frequency:     3.7594238959
  - # 7
    frequency:     3.7642448903
  - # 8
    frequency:     4.5237079313
  - # 9
    frequency:     4.5380080270
  - # 10
    frequency:     4.9388523333
  - # 11
    frequency:     5.2297143283
  - # 12
    frequency:     5.2350075468

- q-position: [    0.4062500,    0.0312500,    0.0104167 ]
  weight: 48   
  band:
  - # 1
    frequency:     2.2748590726
  - # 2
    frequency:     2.2909724696
  - # 3
    frequency:     3.0847259607
  - # 4
    frequency:     3.0953315341
  - # 5
    frequency:     3.6660807131
  - # 6
    frequency:     3.7558790071
  - # 7
    frequency:     3.7598666866
  - # 8
    frequency:     4.5863721123
  - # 9
    frequency:     4.5997877620
  - # 10
    frequency:     4.8351529222
  - # 11
    frequency:     5.1681634715
  - # 12
    frequency:     5.1741600660

- q-position: [    0.4270833,    0.0312500,    0.0104167 ]
  weight: 48   
  band:
  - # 1
    frequency:     2.3759046395
  - # 2
    frequency:     2.3910845625
  - # 3
    frequency:     3.0067276747
  - # 4
    frequency:     3.0176721438
  - # 5
    frequency:     3.7530528846
  - # 6
    frequency:     3.7561812810
  - # 7
    frequency:     3.8158830787
  - # 8
    frequency:     4.6501545957
  - # 9
    frequency:     4.6626851905
  - # 10
    frequency:     4.7260375589
  - # 11
    frequency:     5.1052933757
  - # 12
    frequency:     5.1120230059

- q-position: [    0.4479167,    0.0312500,    0.0104167 ]
  weight: 48   
  band:
  - # 1
    frequency:     2.4744230140
  - # 2
    frequency:     2.4887650451
  - # 3
    frequency:     2.9255083820
  - # 4
    frequency:     2.9368500631
  - # 5
    frequency:     3.7509994718
  - # 6
    frequency:     3.7532484271
  - # 7
    frequency:     3.9609751063
  - # 8
    frequency:     4.6115523664
  - # 9
    frequency:     4.7147723993
  - # 10
    frequency:     4.7264212710
  - # 11
    frequency:     5.0413746629
  - # 12
    frequency:     5.0488637633

- q-position: [    0.4687500,    0.0312500,    0.0104167 ]
  weight: 48   
  band:
  - # 1
    frequency:     2.5703100537
  - # 2
    frequency:     2.5839014719
  - # 3
    frequency:     2.8411605854
  - # 4
    frequency:     2.8529615117
  - # 5
    frequency:     3.7497595613
  - # 6
    frequency:     3.7511146882
  - # 7
    frequency:     4.1012216077
  - # 8
    frequency:     4.4917540459
  - # 9
    frequency:     4.7799195412
  - # 10
    frequency:     4.7906871695
  - # 11
    frequency:     4.9767104611
  - # 12
    frequency:     4.9849757823

- q-position: [    0.4895833,    0.0312500,    0.0104167 ]
  weight: 48   
  band:
  - # 1
    frequency:     2.6634627317
  - # 2
    frequency:     2.6763840358
  - # 3
    frequency:     2.7537794923
  - # 4
    frequency:     2.7661055585
  - # 5
    frequency:     3.7493598967
  - # 6
    frequency:     3.7498125647
  - # 7
    frequency:     4.2365022050
  - # 8
    frequency:     4.3667106301
  - # 9
    frequency:     4.8450866304
  - # 10
    frequency:     4.8548335787
  - # 11
    frequency:     4.9119472410
  - # 12
    frequency:     4.9208590174

- q-position: [    0.0520833,    0.0520833,    0.0104167 ]
  weight: 24   
  band:
  - # 1
    frequency:     0.3140735849
  - # 2
    frequency:     0.4386416331
  - # 3
    frequency:     0.7978119892
  - # 4
    frequency:     3.8380845057
  - # 5
    frequency:     3.8435093307
  - # 6
    frequency:     3.8435093307
  - # 7
    frequency:     3.8645096980
  - # 8
    frequency:     3.8645096980
  - # 9
    frequency:     3.9058381837
  - # 10
    frequency:     5.8437668200
  - # 11
    frequency:     5.8437668200
  - # 12
    frequency:     5.8471109885

- q-position: [    0.0729167,    0.0520833,    0.0104167 ]
  weight: 48   
  band:
  - # 1
    frequency:     0.3955293490
  - # 2
    frequency:     0.5343373426
  - # 3
    frequency:     0.9582037521
  - # 4
    frequency:     3.8293381257
  - # 5
    frequency:     3.8307286906
  - # 6
    frequency:     3.8407552505
  - # 7
    frequency:     3.8518204871
  - # 8
    frequency:     3.8779261138
  - # 9
    frequency:     3.9249664972
  - # 10
    frequency:     5.8278570564
  - # 11
    frequency:     5.8316087728
  - # 12
    frequency:     5.8346053835

- q-position: [    0.0937500,    0.0520833,    0.0104167 ]
  weight: 48   
  band:
  - # 1
    frequency:     0.5032840549
  - # 2
    frequency:     0.6396275593
  - # 3
    frequency:     1.1274077009
  - # 4
    frequency:     3.8137115387
  - # 5
    frequency:     3.8211574194
  - # 6
    frequency:     3.8349296151
  - # 7
    frequency:     3.8372440814
  - # 8
    frequency:     3.8956131558
  - # 9
    frequency:     3.9469607434
  - # 10
    frequency:     5.8066304441
  - # 11
    frequency:     5.8154770335
  - # 12
    frequency:     5.8180104278

- q-position: [    0.1145833,    0.0520833,    0.0104167 ]
  weight: 48   
  band:
  - # 1
    frequency:     0.6220688104
  - # 2
    frequency:     0.7501441619
  - # 3
    frequency:     1.3019376110
  - # 4
    frequency:     3.7924781810
  - # 5
    frequency:     3.8134054510
  - # 6
    frequency:     3.8138609452
  - # 7
    frequency:     3.8329935705
  - # 8
    frequency:     3.9175183579
  - # 9
    frequency:     3.9719325205
  - # 10
    frequency:     5.7800759663
  - # 11
    frequency:     5.7954388887
  - # 12
    frequency:     5.7973935957

- q-position: [    0.1354167,    0.0520833,    0.0104167 ]
  weight: 48   
  band:
  - # 1
    frequency:     0.7451235086