<?xml version="1.0" encoding="ISO-8859-1"?>
<modeling>
 <generator>
  <i name="program" type="string">vasp</i>
  <i name="version" type="string">4.6.28 </i>
  <i name="subversion" type="string">25Jul05 complex  parallel</i>
  <i name="platform" type="string">LinuxIFC</i>
  <i name="date" type="string">2017 01 10</i>
  <i name="time" type="string">03:59:07</i>
 </generator>
 <incar>
  <i type="string" name="PREC">accurate</i>
  <i type="int" name="IALGO">    38</i>
  <i type="logical" name="ADDGRID"> T  </i>
  <i name="EDIFF">      0.00000001</i>
  <i type="int" name="IBRION">    -1</i>
  <i name="ENCUT">    750.00000000</i>
  <i type="logical" name="LREAL"> F  </i>
  <i type="int" name="ISMEAR">     0</i>
  <i name="SIGMA">      0.01000000</i>
  <i type="logical" name="LWAVE"> F  </i>
  <i type="logical" name="LCHARG"> F  </i>
 </incar>
 <kpoints>
  <generation param="Gamma">
   <v type="int" name="divisions">      12      12      12</v>
   <v name="usershift">      0.00000000      0.00000000      0.00000000</v>
   <v name="genvec1">      0.08333333      0.00000000      0.00000000</v>
   <v name="genvec2">      0.00000000      0.08333333      0.00000000</v>
   <v name="genvec3">      0.00000000      0.00000000      0.08333333</v>
   <v name="shift">      0.00000000      0.00000000      0.00000000</v>
  </generation>
  <varray name="kpointlist" >
   <v>       0.00000000      0.00000000      0.00000000</v>
   <v>       0.08333333      0.00000000      0.00000000</v>
   <v>       0.16666667      0.00000000      0.00000000</v>
   <v>       0.25000000      0.00000000      0.00000000</v>
   <v>       0.33333333      0.00000000      0.00000000</v>
   <v>       0.41666667      0.00000000      0.00000000</v>
   <v>       0.50000000      0.00000000      0.00000000</v>
   <v>       0.00000000      0.08333333      0.00000000</v>
   <v>       0.08333333      0.08333333      0.00000000</v>
   <v>       0.16666667      0.08333333      0.00000000</v>
   <v>       0.25000000      0.08333333      0.00000000</v>
   <v>       0.33333333      0.08333333      0.00000000</v>
   <v>       0.41666667      0.08333333      0.00000000</v>
   <v>       0.50000000      0.08333333      0.00000000</v>
   <v>       0.00000000      0.16666667      0.00000000</v>
   <v>       0.08333333      0.16666667      0.00000000</v>
   <v>       0.16666667      0.16666667      0.00000000</v>
   <v>       0.25000000      0.16666667      0.00000000</v>
   <v>       0.33333333      0.16666667      0.00000000</v>
   <v>       0.41666667      0.16666667      0.00000000</v>
   <v>       0.50000000      0.16666667      0.00000000</v>
   <v>       0.00000000      0.25000000      0.00000000</v>
   <v>       0.08333333      0.25000000      0.00000000</v>
   <v>       0.16666667      0.25000000      0.00000000</v>
   <v>       0.25000000      0.25000000      0.00000000</v>
   <v>       0.33333333      0.25000000      0.00000000</v>
   <v>       0.41666667      0.25000000      0.00000000</v>
   <v>       0.50000000      0.25000000      0.00000000</v>
   <v>       0.00000000      0.33333333      0.00000000</v>
   <v>       0.08333333      0.33333333      0.00000000</v>
   <v>       0.16666667      0.33333333      0.00000000</v>
   <v>       0.25000000      0.33333333      0.00000000</v>
   <v>       0.33333333      0.33333333      0.00000000</v>
   <v>       0.41666667      0.33333333      0.00000000</v>
   <v>       0.50000000      0.33333333      0.00000000</v>
   <v>       0.00000000      0.41666667      0.00000000</v>
   <v>       0.08333333      0.41666667      0.00000000</v>
   <v>       0.16666667      0.41666667      0.00000000</v>
   <v>       0.25000000      0.41666667      0.00000000</v>
   <v>       0.33333333      0.41666667      0.00000000</v>
   <v>       0.41666667      0.41666667      0.00000000</v>
   <v>       0.50000000      0.41666667      0.00000000</v>
   <v>       0.00000000      0.50000000      0.00000000</v>
   <v>       0.08333333      0.50000000      0.00000000</v>
   <v>       0.16666667      0.50000000      0.00000000</v>
   <v>       0.25000000      0.50000000      0.00000000</v>
   <v>       0.33333333      0.50000000      0.00000000</v>
   <v>       0.41666667      0.50000000      0.00000000</v>
   <v>       0.50000000      0.50000000      0.00000000</v>
   <v>       0.00000000      0.08333333      0.08333333</v>
   <v>       0.08333333      0.08333333      0.08333333</v>
   <v>       0.16666667      0.08333333      0.08333333</v>
   <v>       0.25000000      0.08333333      0.08333333</v>
   <v>       0.33333333      0.08333333      0.08333333</v>
   <v>       0.41666667      0.08333333      0.08333333</v>
   <v>       0.50000000      0.08333333      0.08333333</v>
   <v>       0.00000000      0.16666667      0.08333333</v>
   <v>       0.08333333      0.16666667      0.08333333</v>
   <v>       0.16666667      0.16666667      0.08333333</v>
   <v>       0.25000000      0.16666667      0.08333333</v>
   <v>       0.33333333      0.16666667      0.08333333</v>
   <v>       0.41666667      0.16666667      0.08333333</v>
   <v>       0.50000000      0.16666667      0.08333333</v>
   <v>       0.00000000      0.25000000      0.08333333</v>
   <v>       0.08333333      0.25000000      0.08333333</v>
   <v>       0.16666667      0.25000000      0.08333333</v>
   <v>       0.25000000      0.25000000      0.08333333</v>
   <v>       0.33333333      0.25000000      0.08333333</v>
   <v>       0.41666667      0.25000000      0.08333333</v>
   <v>       0.50000000      0.25000000      0.08333333</v>
   <v>       0.00000000      0.33333333      0.08333333</v>
   <v>       0.08333333      0.33333333      0.08333333</v>
   <v>       0.16666667      0.33333333      0.08333333</v>
   <v>       0.25000000      0.33333333      0.08333333</v>
   <v>       0.33333333      0.33333333      0.08333333</v>
   <v>       0.41666667      0.33333333      0.08333333</v>
   <v>       0.50000000      0.33333333      0.08333333</v>
   <v>       0.00000000      0.41666667      0.08333333</v>
   <v>       0.08333333      0.41666667      0.08333333</v>
   <v>       0.16666667      0.41666667      0.08333333</v>
   <v>       0.25000000      0.41666667      0.08333333</v>
   <v>       0.33333333      0.41666667      0.08333333</v>
   <v>       0.41666667      0.41666667      0.08333333</v>
   <v>       0.50000000      0.41666667      0.08333333</v>
   <v>       0.00000000      0.50000000      0.08333333</v>
   <v>       0.08333333      0.50000000      0.08333333</v>
   <v>       0.16666667      0.50000000      0.08333333</v>
   <v>       0.25000000      0.50000000      0.08333333</v>
   <v>       0.33333333      0.50000000      0.08333333</v>
   <v>       0.41666667      0.50000000      0.08333333</v>
   <v>       0.50000000      0.50000000      0.08333333</v>
   <v>       0.00000000      0.16666667      0.16666667</v>
   <v>       0.08333333      0.16666667      0.16666667</v>
   <v>       0.16666667      0.16666667      0.16666667</v>
   <v>       0.25000000      0.16666667      0.16666667</v>
   <v>       0.33333333      0.16666667      0.16666667</v>
   <v>       0.41666667      0.16666667      0.16666667</v>
   <v>       0.50000000      0.16666667      0.16666667</v>
   <v>       0.00000000      0.25000000      0.16666667</v>
   <v>       0.08333333      0.25000000      0.16666667</v>
   <v>       0.16666667      0.25000000      0.16666667</v>
   <v>       0.25000000      0.25000000      0.16666667</v>
   <v>       0.33333333      0.25000000      0.16666667</v>
   <v>       0.41666667      0.25000000      0.16666667</v>
   <v>       0.50000000      0.25000000      0.16666667</v>
   <v>       0.00000000      0.33333333      0.16666667</v>
   <v>       0.08333333      0.33333333      0.16666667</v>
   <v>       0.16666667      0.33333333      0.16666667</v>
   <v>       0.25000000      0.33333333      0.16666667</v>
   <v>       0.33333333      0.33333333      0.16666667</v>
   <v>       0.41666667      0.33333333      0.16666667</v>
   <v>       0.50000000      0.33333333      0.16666667</v>
   <v>       0.00000000      0.41666667      0.16666667</v>
   <v>       0.08333333      0.41666667      0.16666667</v>
   <v>       0.16666667      0.41666667      0.16666667</v>
   <v>       0.25000000      0.41666667      0.16666667</v>
   <v>       0.33333333      0.41666667      0.16666667</v>
   <v>       0.41666667      0.41666667      0.16666667</v>
   <v>       0.50000000      0.41666667      0.16666667</v>
   <v>       0.00000000      0.50000000      0.16666667</v>
   <v>       0.08333333      0.50000000      0.16666667</v>
   <v>       0.16666667      0.50000000      0.16666667</v>
   <v>       0.25000000      0.50000000      0.16666667</v>
   <v>       0.33333333      0.50000000      0.16666667</v>
   <v>       0.41666667      0.50000000      0.16666667</v>
   <v>       0.50000000      0.50000000      0.16666667</v>
   <v>       0.00000000      0.25000000      0.25000000</v>
   <v>       0.08333333      0.25000000      0.25000000</v>
   <v>       0.16666667      0.25000000      0.25000000</v>
   <v>       0.25000000      0.25000000      0.25000000</v>
   <v>       0.33333333      0.25000000      0.25000000</v>
   <v>       0.41666667      0.25000000      0.25000000</v>
   <v>       0.50000000      0.25000000      0.25000000</v>
   <v>       0.00000000      0.33333333      0.25000000</v>
   <v>       0.08333333      0.33333333      0.25000000</v>
   <v>       0.16666667      0.33333333      0.25000000</v>
   <v>       0.25000000      0.33333333      0.25000000</v>
   <v>       0.33333333      0.33333333      0.25000000</v>
   <v>       0.41666667      0.33333333      0.25000000</v>
   <v>       0.50000000      0.33333333      0.25000000</v>
   <v>       0.00000000      0.41666667      0.25000000</v>
   <v>       0.08333333      0.41666667      0.25000000</v>
   <v>       0.16666667      0.41666667      0.25000000</v>
   <v>       0.25000000      0.41666667      0.25000000</v>
   <v>       0.33333333      0.41666667      0.25000000</v>
   <v>       0.41666667      0.41666667      0.25000000</v>
   <v>       0.50000000      0.41666667      0.25000000</v>
   <v>       0.00000000      0.50000000      0.25000000</v>
   <v>       0.08333333      0.50000000      0.25000000</v>
   <v>       0.16666667      0.50000000      0.25000000</v>
   <v>       0.25000000      0.50000000      0.25000000</v>
   <v>       0.33333333      0.50000000      0.25000000</v>
   <v>       0.41666667      0.50000000      0.25000000</v>
   <v>       0.50000000      0.50000000      0.25000000</v>
   <v>       0.00000000      0.33333333      0.33333333</v>
   <v>       0.08333333      0.33333333      0.33333333</v>
   <v>       0.16666667      0.33333333      0.33333333</v>
   <v>       0.25000000      0.33333333      0.33333333</v>
   <v>       0.33333333      0.33333333      0.33333333</v>
   <v>       0.41666667      0.33333333      0.33333333</v>
   <v>       0.50000000      0.33333333      0.33333333</v>
   <v>       0.00000000      0.41666667      0.33333333</v>
   <v>       0.08333333      0.41666667      0.33333333</v>
   <v>       0.16666667      0.41666667      0.33333333</v>
   <v>       0.25000000      0.41666667      0.33333333</v>
   <v>       0.33333333      0.41666667      0.33333333</v>
   <v>       0.41666667      0.41666667      0.33333333</v>
   <v>       0.50000000      0.41666667      0.33333333</v>
   <v>       0.00000000      0.50000000      0.33333333</v>
   <v>       0.08333333      0.50000000      0.33333333</v>
   <v>       0.16666667      0.50000000      0.33333333</v>
   <v>       0.25000000      0.50000000      0.33333333</v>
   <v>       0.33333333      0.50000000      0.33333333</v>
   <v>       0.41666667      0.50000000      0.33333333</v>
   <v>       0.50000000      0.50000000      0.33333333</v>
   <v>       0.00000000      0.41666667      0.41666667</v>
   <v>       0.08333333      0.41666667      0.41666667</v>
   <v>       0.16666667      0.41666667      0.41666667</v>
   <v>       0.25000000      0.41666667      0.41666667</v>
   <v>       0.33333333      0.41666667      0.41666667</v>
   <v>       0.41666667      0.41666667      0.41666667</v>
   <v>       0.50000000      0.41666667      0.41666667</v>
   <v>       0.00000000      0.50000000      0.41666667</v>
   <v>       0.08333333      0.50000000      0.41666667</v>
   <v>       0.16666667      0.50000000      0.41666667</v>
   <v>       0.25000000      0.50000000      0.41666667</v>
   <v>       0.33333333      0.50000000      0.41666667</v>
   <v>       0.41666667      0.50000000      0.41666667</v>
   <v>       0.50000000      0.50000000      0.41666667</v>
   <v>       0.00000000      0.50000000      0.50000000</v>
   <v>       0.08333333      0.50000000      0.50000000</v>
   <v>       0.16666667      0.50000000      0.50000000</v>
   <v>       0.25000000      0.50000000      0.50000000</v>
   <v>       0.33333333      0.50000000      0.50000000</v>
   <v>       0.41666667      0.50000000      0.50000000</v>
   <v>       0.50000000      0.50000000      0.50000000</v>
  </varray>
  <varray name="weights" >
   <v>       0.00057870</v>
   <v>       0.00115741</v>
   <v>       0.00115741</v>
   <v>       0.00115741</v>
   <v>       0.00115741</v>
   <v>       0.00115741</v>
   <v>       0.00057870</v>
   <v>       0.00231481</v>
   <v>       0.00462963</v>
   <v>       0.00462963</v>
   <v>       0.00462963</v>
   <v>       0.00462963</v>
   <v>       0.00462963</v>
   <v>       0.00231481</v>
   <v>       0.00231481</v>
   <v>       0.00462963</v>
   <v>       0.00462963</v>
   <v>       0.00462963</v>
   <v>       0.00462963</v>
   <v>       0.00462963</v>
   <v>       0.00231481</v>
   <v>       0.00231481</v>
   <v>       0.00462963</v>
   <v>       0.00462963</v>
   <v>       0.00462963</v>
   <v>       0.00462963</v>
   <v>       0.00462963</v>
   <v>       0.00231481</v>
   <v>       0.00231481</v>
   <v>       0.00462963</v>
   <v>       0.00462963</v>
   <v>       0.00462963</v>
   <v>       0.00462963</v>
   <v>       0.00462963</v>
   <v>       0.00231481</v>
   <v>       0.00231481</v>
   <v>       0.00462963</v>
   <v>       0.00462963</v>
   <v>       0.00462963</v>
   <v>       0.00462963</v>
   <v>       0.00462963</v>
   <v>       0.00231481</v>
   <v>       0.00115741</v>
   <v>       0.00231481</v>
   <v>       0.00231481</v>
   <v>       0.00231481</v>
   <v>       0.00231481</v>
   <v>       0.00231481</v>
   <v>       0.00115741</v>
   <v>       0.00231481</v>
   <v>       0.00462963</v>
   <v>       0.00462963</v>
   <v>       0.00462963</v>
   <v>       0.00462963</v>
   <v>       0.00462963</v>
   <v>       0.00231481</v>
   <v>       0.00462963</v>
   <v>       0.00925926</v>
   <v>       0.00925926</v>
   <v>       0.00925926</v>
   <v>       0.00925926</v>
   <v>       0.00925926</v>
   <v>       0.00462963</v>
   <v>       0.00462963</v>
   <v>       0.00925926</v>
   <v>       0.00925926</v>
   <v>       0.00925926</v>
   <v>       0.00925926</v>
   <v>       0.00925926</v>
   <v>       0.00462963</v>
   <v>       0.00462963</v>
   <v>       0.00925926</v>
   <v>       0.00925926</v>
   <v>       0.00925926</v>
   <v>       0.00925926</v>
   <v>       0.00925926</v>
   <v>       0.00462963</v>
   <v>       0.00462963</v>
   <v>       0.00925926</v>
   <v>       0.00925926</v>
   <v>       0.00925926</v>
   <v>       0.00925926</v>
   <v>       0.00925926</v>
   <v>       0.00462963</v>
   <v>       0.00231481</v>
   <v>       0.00462963</v>
   <v>       0.00462963</v>
   <v>       0.00462963</v>
   <v>       0.00462963</v>
   <v>       0.00462963</v>
   <v>       0.00231481</v>
   <v>       0.00231481</v>
   <v>       0.00462963</v>
   <v>       0.00462963</v>
   <v>       0.00462963</v>
   <v>       0.00462963</v>
   <v>       0.00462963</v>
   <v>       0.00231481</v>
   <v>       0.00462963</v>
   <v>       0.00925926</v>
   <v>       0.00925926</v>
   <v>       0.00925926</v>
   <v>       0.00925926</v>
   <v>       0.00925926</v>
   <v>       0.00462963</v>
   <v>       0.00462963</v>
   <v>       0.00925926</v>
   <v>       0.00925926</v>
   <v>       0.00925926</v>
   <v>       0.00925926</v>
   <v>       0.00925926</v>
   <v>       0.00462963</v>
   <v>       0.00462963</v>
   <v>       0.00925926</v>
   <v>       0.00925926</v>
   <v>       0.00925926</v>
   <v>       0.00925926</v>
   <v>       0.00925926</v>
   <v>       0.00462963</v>
   <v>       0.00231481</v>
   <v>       0.00462963</v>
   <v>       0.00462963</v>
   <v>       0.00462963</v>
   <v>       0.00462963</v>
   <v>       0.00462963</v>
   <v>       0.00231481</v>
   <v>       0.00231481</v>
   <v>       0.00462963</v>
   <v>       0.00462963</v>
   <v>       0.00462963</v>
   <v>       0.00462963</v>
   <v>       0.00462963</v>
   <v>       0.00231481</v>
   <v>       0.00462963</v>
   <v>       0.00925926</v>
   <v>       0.00925926</v>
   <v>       0.00925926</v>
   <v>       0.00925926</v>
   <v>       0.00925926</v>
   <v>       0.00462963</v>
   <v>       0.00462963</v>
   <v>       0.00925926</v>
   <v>       0.00925926</v>
   <v>       0.00925926</v>
   <v>       0.00925926</v>
   <v>       0.00925926</v>
   <v>       0.00462963</v>
   <v>       0.00231481</v>
   <v>       0.00462963</v>
   <v>       0.00462963</v>
   <v>       0.00462963</v>
   <v>       0.00462963</v>
   <v>       0.00462963</v>
   <v>       0.00231481</v>
   <v>       0.00231481</v>
   <v>       0.00462963</v>
   <v>       0.00462963</v>
   <v>       0.00462963</v>
   <v>       0.00462963</v>
   <v>       0.00462963</v>
   <v>       0.00231481</v>
   <v>       0.00462963</v>
   <v>       0.00925926</v>
   <v>       0.00925926</v>
   <v>       0.00925926</v>
   <v>       0.00925926</v>
   <v>       0.00925926</v>
   <v>       0.00462963</v>
   <v>       0.00231481</v>
   <v>       0.00462963</v>
   <v>       0.00462963</v>
   <v>       0.00462963</v>
   <v>       0.00462963</v>
   <v>       0.00462963</v>
   <v>       0.00231481</v>
   <v>       0.00231481</v>
   <v>       0.00462963</v>
   <v>       0.00462963</v>
   <v>       0.00462963</v>
   <v>       0.00462963</v>
   <v>       0.00462963</v>
   <v>       0.00231481</v>
   <v>       0.00231481</v>
   <v>       0.00462963</v>
   <v>       0.00462963</v>
   <v>       0.00462963</v>
   <v>       0.00462963</v>
   <v>       0.00462963</v>
   <v>       0.00231481</v>
   <v>       0.00057870</v>
   <v>       0.00115741</v>
   <v>       0.00115741</v>
   <v>       0.00115741</v>
   <v>       0.00115741</v>
   <v>       0.00115741</v>
   <v>       0.00057870</v>
  </varray>
 </kpoints>
 <parameters>
  <separator name="general" >
   <i type="string" name="SYSTEM">unknown system</i>
   <i type="logical" name="LCOMPAT"> F  </i>
  </separator>
  <separator name="electronic" >
   <i type="string" name="PREC">accura</i>
   <i name="ENMAX">    750.00000000</i>
   <i name="ENAUG">    412.49600000</i>
   <i name="EDIFF">      0.00000001</i>
   <i type="int" name="IALGO">    38</i>
   <i type="int" name="IWAVPR">    10</i>
   <i type="int" name="NBANDS">   211</i>
   <i name="NELECT">    352.00000000</i>
   <separator name="electronic smearing" >
    <i type="int" name="ISMEAR">     0</i>
    <i name="SIGMA">      0.01000000</i>
   </separator>
   <separator name="electronic projectors" >
    <i type="logical" name="LREAL"> F  </i>
    <v name="ROPT">      0.00000000</v>
    <i type="int" name="LMAXPAW">  -100</i>
    <i type="int" name="LMAXMIX">     2</i>
   </separator>
   <separator name="electronic startup" >
    <i type="int" name="ISTART">     0</i>
    <i type="int" name="ICHARG">     2</i>
    <i type="int" name="INIWAV">     1</i>
   </separator>
   <separator name="electronic spin" >
    <i type="int" name="ISPIN">     1</i>
    <i type="logical" name="LNONCOLLINEAR"> F  </i>
    <v name="MAGMOM">      1.00000000      1.00000000      1.00000000      1.00000000      1.00000000      1.00000000      1.00000000      1.00000000      1.00000000      1.00000000      1.00000000      1.00000000      1.00000000      1.00000000      1.00000000      1.00000000      1.00000000      1.00000000      1.00000000      1.00000000
      1.00000000      1.00000000      1.00000000      1.00000000      1.00000000      1.00000000      1.00000000      1.00000000      1.00000000      1.00000000      1.00000000      1.00000000</v>
    <i name="NUPDOWN">     -1.00000000</i>
    <i type="logical" name="LSORBIT"> F  </i>
    <v name="SAXIS">      0.00000000      0.00000000      1.00000000</v>
    <i type="logical" name="LSPIRAL"> F  </i>
    <v name="QSPIRAL">      0.00000000      0.00000000      0.00000000</v>
    <i type="logical" name="LZEROZ"> F  </i>
   </separator>
   <separator name="electronic exchange-correlation" >
    <i type="string" name="GGA">--</i>
    <i type="int" name="VOSKOWN">     0</i>
    <i type="logical" name="LASPH"> F  </i>
    <i type="logical" name="LMETAGGA"> F  </i>
    <i type="string" name="GGA2">--</i>
   </separator>
   <separator name="electronic convergence" >
    <i type="int" name="NELM">    60</i>
    <i type="int" name="NELMDL">     0</i>
    <i type="int" name="NELMIN">     2</i>
    <i name="ENINI">    750.00000000</i>
    <separator name="electronic convergence detail" >
     <i type="logical" name="LDIAG"> T  </i>
     <i name="WEIMIN">      0.00000000</i>
     <i name="EBREAK">      0.00000000</i>
     <i name="DEPER">      0.30000000</i>
     <i type="int" name="NRMM">     4</i>
     <i name="TIME">      0.10000000</i>
    </separator>
   </separator>
   <separator name="electronic mixer" >
    <i name="AMIX">      0.40000000</i>
    <i name="BMIX">      1.00000000</i>
    <i name="AMIN">      0.10000000</i>
    <i name="AMIX_MAG">      1.60000000</i>
    <i name="BMIX_MAG">      1.00000000</i>
    <separator name="electronic mixer details" >
     <i type="int" name="IMIX">     4</i>
     <i type="int" name="MAXMIX">   -45</i>
     <i name="WC">    100.00000000</i>
     <i type="int" name="INIMIX">     1</i>
     <i type="int" name="MIXPRE">     1</i>
     <i type="int" name="MREMOVE">     5</i>
    </separator>
   </separator>
   <separator name="electronic dipolcorrection" >
    <i type="int" name="IDIPOL">     0</i>
    <i type="logical" name="LDIPOL"> F  </i>
    <v name="DIPOL">   -100.00000000</v>
    <i name="EFIELD">      0.00000000</i>
   </separator>
  </separator>
  <separator name="grids" >
   <i type="int" name="NGX">    72</i>
   <i type="int" name="NGY">    72</i>
   <i type="int" name="NGZ">    72</i>
   <i type="int" name="NGXF">   144</i>
   <i type="int" name="NGYF">   144</i>
   <i type="int" name="NGZF">   144</i>
   <i type="logical" name="ADDGRID"> T  </i>
  </separator>
  <separator name="ionic" >
   <i type="int" name="NSW">     0</i>
   <i type="int" name="IBRION">    -1</i>
   <i type="int" name="ISIF">     2</i>
   <i name="PSTRESS">      0.00000000</i>
   <i name="EDIFFG">      0.00000010</i>
   <i type="int" name="NFREE">     0</i>
   <i name="POTIM">      0.50000000</i>
   <i name="SMASS">     -3.00000000</i>
  </separator>
  <separator name="ionic md" >
   <i name="TEBEG">      0.00010000</i>
   <i name="TEEND">      0.00010000</i>
   <i type="int" name="NBLOCK">     1</i>
   <i type="int" name="KBLOCK">     1</i>
   <i type="int" name="NPACO">   256</i>
   <i name="APACO">     16.00000000</i>
  </separator>
  <separator name="symmetry" >
   <i type="int" name="ISYM">     2</i>
   <i name="SYMPREC">      0.00001000</i>
  </separator>
  <separator name="dos" >
   <i type="logical" name="LORBIT"> F  </i>
   <v name="RWIGS">     -1.00000000</v>
   <i type="int" name="NEDOS">   301</i>
   <i name="EMIN">     10.00000000</i>
   <i name="EMAX">    -10.00000000</i>
  </separator>
  <separator name="writing" >
   <i type="int" name="NWRITE">     2</i>
   <i type="logical" name="LWAVE"> F  </i>
   <i type="logical" name="LCHARG"> F  </i>
   <i type="logical" name="LPARD"> F  </i>
   <i type="logical" name="LVTOT"> F  </i>
   <i type="logical" name="LELF"> F  </i>
   <i type="logical" name="LOPTICS"> F  </i>
   <i name="STM">      0.00000000</i>
  </separator>
  <separator name="performance" >
   <i type="int" name="NPAR">     4</i>
   <i type="int" name="NSIM">     4</i>
   <i type="int" name="NBLK">   256</i>
   <i type="logical" name="LPLANE"> T  </i>
   <i type="logical" name="LCRITICAL_MEM"> F  </i>
   <i type="logical" name="LSCALAPACK"> F  </i>
   <i type="logical" name="LSCALU"> F  </i>
   <i type="logical" name="LASYNC"> F  </i>
  </separator>
  <separator name="miscellaneous" >
   <i type="int" name="IDIOT">     3</i>
   <i type="logical" name="LMUSIC"> F  </i>
   <v name="POMASS">    107.86800000</v>
   <i type="logical" name="LCORR"> T  </i>
  </separator>
  <i type="logical" name="LREAL_COMPAT"> F  </i>
  <i type="logical" name="GGA_COMPAT"> T  </i>
  <i type="logical" name="LBERRY"> F  </i>
  <i type="int" name="ICORELEVEL">     0</i>
  <i type="logical" name="LDAU"> F  </i>
  <i type="int" name="I_CONSTRAINED_M">     0</i>
 </parameters>
 <atominfo>
  <atoms>      32</atoms>
  <types>       1</types>
  <array name="atoms" >
   <dimension dim="1">ion</dimension>
   <field type="string">element</field>
   <field type="int">atomtype</field>
   <set>
    <rc><c>Ag</c><c>   1</c></rc>
    <rc><c>Ag</c><c>   1</c></rc>
    <rc><c>Ag</c><c>   1</c></rc>
    <rc><c>Ag</c><c>   1</c></rc>
    <rc><c>Ag</c><c>   1</c></rc>
    <rc><c>Ag</c><c>   1</c></rc>
    <rc><c>Ag</c><c>   1</c></rc>
    <rc><c>Ag</c><c>   1</c></rc>
    <rc><c>Ag</c><c>   1</c></rc>
    <rc><c>Ag</c><c>   1</c></rc>
    <rc><c>Ag</c><c>   1</c></rc>
    <rc><c>Ag</c><c>   1</c></rc>
    <rc><c>Ag</c><c>   1</c></rc>
    <rc><c>Ag</c><c>   1</c></rc>
    <rc><c>Ag</c><c>   1</c></rc>
    <rc><c>Ag</c><c>   1</c></rc>
    <rc><c>Ag</c><c>   1</c></rc>
    <rc><c>Ag</c><c>   1</c></rc>
    <rc><c>Ag</c><c>   1</c></rc>
    <rc><c>Ag</c><c>   1</c></rc>
    <rc><c>Ag</c><c>   1</c></rc>
    <rc><c>Ag</c><c>   1</c></rc>
    <rc><c>Ag</c><c>   1</c></rc>
    <rc><c>Ag</c><c>   1</c></rc>
    <rc><c>Ag</c><c>   1</c></rc>
    <rc><c>Ag</c><c>   1</c></rc>
    <rc><c>Ag</c><c>   1</c></rc>
    <rc><c>Ag</c><c>   1</c></rc>
    <rc><c>Ag</c><c>   1</c></rc>
    <rc><c>Ag</c><c>   1</c></rc>
    <rc><c>Ag</c><c>   1</c></rc>
    <rc><c>Ag</c><c>   1</c></rc>
   </set>
  </array>
  <array name="atomtypes" >
   <dimension dim="1">type</dimension>
   <field type="int">atomspertype</field>
   <field type="string">element</field>
   <field>mass</field>
   <field>valence</field>
   <field type="string">pseudopotential</field>
   <set>
    <rc><c>  32</c><c>Ag</c><c>    107.86800000</c><c>     11.00000000</c><c> PAW_PBE Ag 06Sep2000                   </c></rc>
   </set>
  </array>
 </atominfo>
 <structure name="initialpos" >
  <crystal>
   <varray name="basis" >
    <v>       8.07665608      0.00000000      0.00000000</v>
    <v>       0.00000000      8.07665608      0.00000000</v>
    <v>       0.00000000      0.00000000      8.07665608</v>
   </varray>
   <i name="volume">    526.85944480</i>
   <varray name="rec_basis" >
    <v>       0.12381362      0.00000000      0.00000000</v>
    <v>       0.00000000      0.12381362      0.00000000</v>
    <v>       0.00000000      0.00000000      0.12381362</v>
   </varray>
  </crystal>
  <varray name="positions" >
   <v>       0.00123814      0.00000000      0.00000000</v>
   <v>       0.50000000      0.00000000      0.00000000</v>
   <v>       0.00000000      0.50000000      0.00000000</v>
   <v>       0.50000000      0.50000000      0.00000000</v>
   <v>       0.00000000      0.00000000      0.50000000</v>
   <v>       0.50000000      0.00000000      0.50000000</v>
   <v>       0.00000000      0.50000000      0.50000000</v>
   <v>       0.50000000      0.50000000      0.50000000</v>
   <v>       0.25000000      0.25000000      0.00000000</v>
   <v>       0.75000000      0.25000000      0.00000000</v>
   <v>       0.25000000      0.75000000      0.00000000</v>
   <v>       0.75000000      0.75000000      0.00000000</v>
   <v>       0.25000000      0.25000000      0.50000000</v>
   <v>       0.75000000      0.25000000      0.50000000</v>
   <v>       0.25000000      0.75000000      0.50000000</v>
   <v>       0.75000000      0.75000000      0.50000000</v>
   <v>       0.25000000      0.00000000      0.25000000</v>
   <v>       0.75000000      0.00000000      0.25000000</v>
   <v>       0.25000000      0.50000000      0.25000000</v>
   <v>       0.75000000      0.50000000      0.25000000</v>
   <v>       0.25000000      0.00000000      0.75000000</v>
   <v>       0.75000000      0.00000000      0.75000000</v>
   <v>       0.25000000      0.50000000      0.75000000</v>
   <v>       0.75000000      0.50000000      0.75000000</v>
   <v>       0.00000000      0.25000000      0.25000000</v>
   <v>       0.50000000      0.25000000      0.25000000</v>
   <v>       0.00000000      0.75000000      0.25000000</v>
   <v>       0.50000000      0.75000000      0.25000000</v>
   <v>       0.00000000      0.25000000      0.75000000</v>
   <v>       0.50000000      0.25000000      0.75000000</v>
   <v>       0.00000000      0.75000000      0.75000000</v>
   <v>       0.50000000      0.75000000      0.75000000</v>
  </varray>
 </structure>
 <calculation>
  <scstep>
   <time name="dav"> 2524.65 2532.40</time>
   <time name="total"> 2526.38 2534.13</time>
   <energy>
    <i name="alphaZ">   3451.38679373</i>
    <i name="ewald"> -31650.88542768</i>
    <i name="hartreedc">  -6308.84471540</i>
    <i name="XCdc">   -339.10269905</i>
    <i name="pawpsdc">  27861.41421209</i>
    <i name="pawaedc"> -26376.63839568</i>
    <i name="eentropy">     -0.00042732</i>
    <i name="bandstr">   4590.11744975</i>
    <i name="atom">  33197.19690173</i>
    <i name="e_fr_energy">   4424.64369217</i>
    <i name="e_wo_entrp">   4424.64411949</i>
    <i name="e_0_energy">   4424.64390583</i>
   </energy>
  </scstep>
  <scstep>
   <time name="dav"> 2529.43 2537.20</time>
   <time name="total"> 2529.63 2537.40</time>
   <energy>
    <i name="e_fr_energy">    139.50610327</i>
    <i name="e_wo_entrp">    139.50655029</i>
    <i name="e_0_energy">    139.50632678</i>
   </energy>
  </scstep>
  <scstep>
   <time name="dav"> 2608.34 2618.15</time>
   <time name="total"> 2608.54 2618.35</time>
   <energy>
    <i name="e_fr_energy">    -92.06111493</i>
    <i name="e_wo_entrp">    -92.06060669</i>
    <i name="e_0_energy">    -92.06086081</i>
   </energy>
  </scstep>
  <scstep>
   <time name="dav"> 2670.73 2685.79</time>
   <time name="total"> 2670.93 2685.99</time>
   <energy>
    <i name="e_fr_energy">    -96.86683575</i>
    <i name="e_wo_entrp">    -96.86644483</i>
    <i name="e_0_energy">    -96.86664029</i>
   </energy>
  </scstep>
  <scstep>
   <time name="dav"> 2653.00 2658.22</time>
   <time name="total"> 2740.65 2746.03</time>
   <energy>
    <i name="e_fr_energy">    -96.89417103</i>
    <i name="e_wo_entrp">    -96.89378236</i>
    <i name="e_0_energy">    -96.89397670</i>
   </energy>
  </scstep>
  <scstep>
   <time name="dav"> 2597.34 2602.09</time>
   <time name="total"> 2685.31 2690.19</time>
   <energy>
    <i name="e_fr_energy">    -89.34931897</i>
    <i name="e_wo_entrp">    -89.34864039</i>
    <i name="e_0_energy">    -89.34897968</i>
   </energy>
  </scstep>
  <scstep>
   <time name="dav"> 2583.63 2587.83</time>
   <time name="total"> 2673.46 2677.81</time>
   <energy>
    <i name="e_fr_energy">    -89.07209999</i>
    <i name="e_wo_entrp">    -89.07131621</i>
    <i name="e_0_energy">    -89.07170810</i>
   </energy>
  </scstep>
  <scstep>
   <time name="dav"> 2598.15 2602.37</time>
   <time name="total"> 2685.82 2690.19</time>
   <energy>
    <i name="e_fr_energy">    -88.95690343</i>
    <i name="e_wo_entrp">    -88.95607577</i>
    <i name="e_0_energy">    -88.95648960</i>
   </energy>
  </scstep>
  <scstep>
   <time name="dav"> 2662.36 2666.77</time>
   <time name="total"> 2752.33 2756.89</time>
   <energy>
    <i name="e_fr_energy">    -88.95775432</i>
    <i name="e_wo_entrp">    -88.95690322</i>
    <i name="e_0_energy">    -88.95732877</i>
   </energy>
  </scstep>
  <scstep>
   <time name="dav"> 2591.18 2596.96</time>
   <time name="total"> 2680.01 2686.16</time>
   <energy>
    <i name="e_fr_energy">    -88.95761019</i>
    <i name="e_wo_entrp">    -88.95676636</i>
    <i name="e_0_energy">    -88.95718828</i>
   </energy>
  </scstep>
  <scstep>
   <time name="dav"> 2630.19 2635.02</time>
   <time name="total"> 2719.84 2724.83</time>
   <energy>
    <i name="e_fr_energy">    -88.95760578</i>
    <i name="e_wo_entrp">    -88.95676259</i>
    <i name="e_0_energy">    -88.95718418</i>
   </energy>
  </scstep>
  <scstep>
   <time name="dav"> 2605.16 2609.82</time>
   <time name="total"> 2694.38 2699.19</time>
   <energy>
    <i name="e_fr_energy">    -88.95760337</i>
    <i name="e_wo_entrp">    -88.95676055</i>
    <i name="e_0_energy">    -88.95718196</i>
   </energy>
  </scstep>
  <scstep>
   <time name="dav"> 2460.13 2464.14</time>
   <time name="total"> 2549.20 2553.35</time>
   <energy>
    <i name="e_fr_energy">    -88.95760018</i>
    <i name="e_wo_entrp">    -88.95675746</i>
    <i name="e_0_energy">    -88.95717882</i>
   </energy>
  </scstep>
  <scstep>
   <time name="dav"> 1702.59 1705.72</time>
   <time name="total"> 1791.20 1794.49</time>
   <energy>
    <i name="e_fr_energy">    -88.95759982</i>
    <i name="e_wo_entrp">    -88.95675711</i>
    <i name="e_0_energy">    -88.95717847</i>
   </energy>
  </scstep>
  <scstep>
   <time name="dav"> 1648.16 1651.08</time>
   <time name="total"> 1737.21 1740.29</time>
   <energy>
    <i name="e_fr_energy">    -88.95759977</i>
    <i name="e_wo_entrp">    -88.95675706</i>
    <i name="e_0_energy">    -88.95717841</i>
   </energy>
  </scstep>
  <scstep>
   <time name="dav"> 1621.06 1623.77</time>
   <time name="total"> 1709.72 1712.61</time>
   <energy>
    <i name="e_fr_energy">    -88.95759974</i>
    <i name="e_wo_entrp">    -88.95675702</i>
    <i name="e_0_energy">    -88.95717838</i>
   </energy>
  </scstep>
  <scstep>
   <time name="dav"> 1647.12 1650.86</time>
   <time name="total"> 1737.41 1741.35</time>
   <energy>
    <i name="e_fr_energy">    -88.95759972</i>
    <i name="e_wo_entrp">    -88.95675700</i>
    <i name="e_0_energy">    -88.95717836</i>
   </energy>
  </scstep>
  <scstep>
   <time name="dav"> 1613.40 1616.42</time>
   <time name="total"> 1614.94 1617.97</time>
   <energy>
    <i name="alphaZ">   3451.38679373</i>
    <i name="ewald"> -31650.88542768</i>
    <i name="hartreedc">  -5913.46805250</i>
    <i name="XCdc">   -353.41847337</i>
    <i name="pawpsdc">  27969.14765381</i>
    <i name="pawaedc"> -26567.56802887</i>
    <i name="eentropy">     -0.00084272</i>
    <i name="bandstr">   -221.34812385</i>
    <i name="atom">  33197.19690173</i>
    <i name="e_fr_energy">    -88.95759971</i>
    <i name="e_wo_entrp">    -88.95675700</i>
    <i name="e_0_energy">    -88.95717835</i>
   </energy>
  </scstep>
  <structure>
   <crystal>
    <varray name="basis" >
     <v>       8.07665608      0.00000000      0.00000000</v>
     <v>       0.00000000      8.07665608      0.00000000</v>
     <v>       0.00000000      0.00000000      8.07665608</v>
    </varray>
    <i name="volume">    526.85944480</i>
    <varray name="rec_basis" >
     <v>       0.12381362      0.00000000      0.00000000</v>
     <v>       0.00000000      0.12381362      0.00000000</v>
     <v>       0.00000000      0.00000000      0.12381362</v>
    </varray>
   </crystal>
   <varray name="positions" >
    <v>       0.00123814      0.00000000      0.00000000</v>
    <v>       0.50000000      0.00000000      0.00000000</v>
    <v>       0.00000000      0.50000000      0.00000000</v>
    <v>       0.50000000      0.50000000      0.00000000</v>
    <v>       0.00000000      0.00000000      0.50000000</v>
    <v>       0.50000000      0.00000000      0.50000000</v>
    <v>       0.00000000      0.50000000      0.50000000</v>
    <v>       0.50000000      0.50000000      0.50000000</v>
    <v>       0.25000000      0.25000000      0.00000000</v>
    <v>       0.75000000      0.25000000      0.00000000</v>
    <v>       0.25000000      0.75000000      0.00000000</v>
    <v>       0.75000000      0.75000000      0.00000000</v>
    <v>       0.25000000      0.25000000      0.50000000</v>
    <v>       0.75000000      0.25000000      0.50000000</v>
    <v>       0.25000000      0.75000000      0.50000000</v>
    <v>       0.75000000      0.75000000      0.50000000</v>
    <v>       0.25000000      0.00000000      0.25000000</v>
    <v>       0.75000000      0.00000000      0.25000000</v>
    <v>       0.25000000      0.50000000      0.25000000</v>
    <v>       0.75000000      0.50000000      0.25000000</v>
    <v>       0.25000000      0.00000000      0.75000000</v>
    <v>       0.75000000      0.00000000      0.75000000</v>
    <v>       0.25000000      0.50000000      0.75000000</v>
    <v>       0.75000000      0.50000000      0.75000000</v>
    <v>       0.00000000      0.25000000      0.25000000</v>
    <v>       0.50000000      0.25000000      0.25000000</v>
    <v>       0.00000000      0.75000000      0.25000000</v>
    <v>       0.50000000      0.75000000      0.25000000</v>
    <v>       0.00000000      0.25000000      0.75000000</v>
    <v>       0.50000000      0.25000000      0.75000000</v>
    <v>       0.00000000      0.75000000      0.75000000</v>
    <v>       0.50000000      0.75000000      0.75000000</v>
   </varray>
  </structure>
  <varray name="forces" >
   <v>      -0.07041307     -0.00000000     -0.00000000</v>
   <v>       0.00128934      0.00000000      0.00000000</v>
   <v>      -0.00039183      0.00000000      0.00000000</v>
   <v>      -0.00040765      0.00000000      0.00000000</v>
   <v>      -0.00039183     -0.00000000      0.00000000</v>
   <v>      -0.00040765     -0.00000000      0.00000000</v>
   <v>      -0.00024279     -0.00000000      0.00000000</v>
   <v>      -0.00001019     -0.00000000      0.00000000</v>
   <v>       0.00942906      0.01107215     -0.00000000</v>
   <v>       0.00916976     -0.01069725     -0.00000000</v>
   <v>       0.00942906     -0.01107215      0.00000000</v>
   <v>       0.00916976      0.01069725     -0.00000000</v>
   <v>       0.00021923      0.00003367     -0.00000000</v>
   <v>       0.00021756     -0.00002691     -0.00000000</v>
   <v>       0.00021923     -0.00003367     -0.00000000</v>
   <v>       0.00021756      0.00002691     -0.00000000</v>
   <v>       0.00942906      0.00000000      0.01107215</v>
   <v>       0.00916976     -0.00000000     -0.01069725</v>
   <v>       0.00021923      0.00000000      0.00003367</v>
   <v>       0.00021756      0.00000000     -0.00002691</v>
   <v>       0.00942906     -0.00000000     -0.01107215</v>
   <v>       0.00916976     -0.00000000      0.01069725</v>
   <v>       0.00021923      0.00000000     -0.00003367</v>
   <v>       0.00021756     -0.00000000      0.00002691</v>
   <v>      -0.00182429     -0.00001906     -0.00001906</v>
   <v>       0.00053260      0.00000312      0.00000312</v>
   <v>      -0.00182429      0.00001906     -0.00001906</v>
   <v>       0.00053260     -0.00000312      0.00000312</v>
   <v>      -0.00182429     -0.00001906      0.00001906</v>
   <v>       0.00053260      0.00000312     -0.00000312</v>
   <v>      -0.00182429      0.00001906      0.00001906</v>
   <v>       0.00053260     -0.00000312     -0.00000312</v>
  </varray>
  <varray name="stress" >
   <v>     106.45396528      0.00000000      0.00000000</v>
   <v>       0.00000000    106.45417569      0.00000000</v>
   <v>      -0.00000000      0.00000000    106.45417569</v>
  </varray>
  <energy>
   <i name="e_fr_energy">    -88.95759971</i>
   <i name="e_wo_entrp">    -88.95717835</i>
   <i name="e_0_energy">     -0.00084272</i>
  </energy>
  <eigenvalues>
   <array>
    <dimension dim="1">band</dimension>
    <dimension dim="2">kpoint</dimension>
    <dimension dim="3">spin</dimension>
    <field>eigene</field>
    <field>occ</field>
    <set>
     <set comment="spin 1">
      <set comment="kpoint 1">
       <r>  -4.1873  1.0000</r>
       <r>  -2.8644  1.0000</r>
       <r>  -2.8644  1.0000</r>
       <r>  -2.8644  1.0000</r>
       <r>  -2.8037  1.0000</r>
       <r>  -2.8037  1.0000</r>
       <r>  -2.8037  1.0000</r>
       <r>  -2.8037  1.0000</r>
       <r>  -2.7137  1.0000</r>
       <r>  -2.7137  1.0000</r>
       <r>  -2.7137  1.0000</r>
       <r>  -2.3660  1.0000</r>
       <r>  -2.3641  1.0000</r>
       <r>  -2.3640  1.0000</r>
       <r>  -2.3640  1.0000</r>
       <r>  -2.3640  1.0000</r>
       <r>  -2.3621  1.0000</r>
       <r>  -2.0736  1.0000</r>
       <r>  -2.0717  1.0000</r>
       <r>  -2.0717  1.0000</r>
       <r>  -2.0717  1.0000</r>
       <r>  -2.0717  1.0000</r>
       <r>  -2.0698  1.0000</r>
       <r>  -1.9673  1.0000</r>
       <r>  -1.9654  1.0000</r>
       <r>  -1.9654  1.0000</r>
       <r>  -1.9653  1.0000</r>
       <r>  -1.9653  1.0000</r>
       <r>  -1.9634  1.0000</r>
       <r>  -1.7106  1.0000</r>
       <r>  -1.7106  1.0000</r>
       <r>  -1.7101  1.0000</r>
       <r>  -1.7093  1.0000</r>
       <r>  -1.7089  1.0000</r>
       <r>  -1.7089  1.0000</r>
       <r>  -1.7089  1.0000</r>
       <r>  -1.7089  1.0000</r>
       <r>  -1.7085  1.0000</r>
       <r>  -1.7076  1.0000</r>
       <r>  -1.7072  1.0000</r>
       <r>  -1.7072  1.0000</r>
       <r>  -1.4807  1.0000</r>
       <r>  -1.4782  1.0000</r>
       <r>  -1.4782  1.0000</r>
       <r>  -1.4772  1.0000</r>
       <r>  -1.4771  1.0000</r>
       <r>  -1.4771  1.0000</r>
       <r>  -1.4771  1.0000</r>
       <r>  -1.4771  1.0000</r>
       <r>  -1.4771  1.0000</r>
       <r>  -1.4762  1.0000</r>
       <r>  -1.4762  1.0000</r>
       <r>  -1.4738  1.0000</r>
       <r>  -1.4182  1.0000</r>
       <r>  -1.4182  1.0000</r>
       <r>  -1.4162  1.0000</r>
       <r>  -1.4162  1.0000</r>
       <r>  -1.4162  1.0000</r>
       <r>  -1.4161  1.0000</r>
       <r>  -1.4161  1.0000</r>
       <r>  -1.4161  1.0000</r>
       <r>  -1.4161  1.0000</r>
       <r>  -1.4159  1.0000</r>
       <r>  -1.4140  1.0000</r>
       <r>  -1.4140  1.0000</r>
       <r>  -1.1466  1.0000</r>
       <r>  -1.1466  1.0000</r>
       <r>  -1.1466  1.0000</r>
       <r>  -1.1466  1.0000</r>
       <r>  -1.1465  1.0000</r>
       <r>  -1.1465  1.0000</r>
       <r>  -1.1465  1.0000</r>
       <r>  -1.1465  1.0000</r>
       <r>  -1.1218  1.0000</r>
       <r>  -1.1218  1.0000</r>
       <r>  -1.1218  1.0000</r>
       <r>  -1.0680  1.0000</r>
       <r>  -1.0654  1.0000</r>
       <r>  -1.0651  1.0000</r>
       <r>  -1.0651  1.0000</r>
       <r>  -1.0649  1.0000</r>
       <r>  -1.0649  1.0000</r>
       <r>  -1.0649  1.0000</r>
       <r>  -1.0649  1.0000</r>
       <r>  -1.0647  1.0000</r>
       <r>  -1.0647  1.0000</r>
       <r>  -1.0644  1.0000</r>
       <r>  -1.0619  1.0000</r>
       <r>  -0.4280  1.0000</r>
       <r>  -0.4273  1.0000</r>
       <r>  -0.4263  1.0000</r>
       <r>  -0.4263  1.0000</r>
       <r>  -0.4258  1.0000</r>
       <r>  -0.4258  1.0000</r>
       <r>  -0.4257  1.0000</r>
       <r>  -0.4257  1.0000</r>
       <r>  -0.4252  1.0000</r>
       <r>  -0.4252  1.0000</r>
       <r>  -0.4242  1.0000</r>
       <r>  -0.4236  1.0000</r>
       <r>  -0.1962  1.0000</r>
       <r>  -0.1962  1.0000</r>
       <r>  -0.1940  1.0000</r>
       <r>  -0.1940  1.0000</r>
       <r>  -0.1938  1.0000</r>
       <r>  -0.1938  1.0000</r>
       <r>  -0.1938  1.0000</r>
       <r>  -0.1938  1.0000</r>
       <r>  -0.1936  1.0000</r>
       <r>  -0.1936  1.0000</r>
       <r>  -0.1914  1.0000</r>
       <r>  -0.1914  1.0000</r>
       <r>  -0.0713  1.0000</r>
       <r>  -0.0695  1.0000</r>
       <r>  -0.0694  1.0000</r>
       <r>  -0.0694  1.0000</r>
       <r>  -0.0694  1.0000</r>
       <r>  -0.0676  1.0000</r>
       <r>  -0.0197  1.0000</r>
       <r>  -0.0193  1.0000</r>
       <r>  -0.0136  1.0000</r>
       <r>  -0.0130  1.0000</r>
       <r>  -0.0130  1.0000</r>
       <r>  -0.0120  1.0000</r>
       <r>  -0.0119  1.0000</r>
       <r>  -0.0111  1.0000</r>
       <r>  -0.0101  1.0000</r>
       <r>  -0.0101  1.0000</r>
       <r>  -0.0087  1.0000</r>
       <r>  -0.0083  1.0000</r>
       <r>  -0.0083  1.0000</r>
       <r>  -0.0083  1.0000</r>
       <r>  -0.0083  1.0000</r>
       <r>  -0.0082  1.0000</r>
       <r>  -0.0078  1.0000</r>
       <r>  -0.0070  1.0000</r>
       <r>  -0.0053  1.0000</r>
       <r>  -0.0053  1.0000</r>
       <r>   0.3748  1.0000</r>
       <r>   0.3759  1.0000</r>
       <r>   0.3759  1.0000</r>
       <r>   0.3759  1.0000</r>
       <r>   0.3760  1.0000</r>
       <r>   0.3770  1.0000</r>
       <r>   0.7927  1.0000</r>
       <r>   0.7927  1.0000</r>
       <r>   0.7927  1.0000</r>
       <r>   0.8256  1.0000</r>
       <r>   0.8257  1.0000</r>
       <r>   0.8257  1.0000</r>
       <r>   0.8257  1.0000</r>
       <r>   0.8257  1.0000</r>
       <r>   0.8257  1.0000</r>
       <r>   0.8257  1.0000</r>
       <r>   0.8257  1.0000</r>
       <r>   1.0462  1.0000</r>
       <r>   1.0465  1.0000</r>
       <r>   1.0465  1.0000</r>
       <r>   1.0465  1.0000</r>
       <r>   1.0465  1.0000</r>
       <r>   1.0465  1.0000</r>
       <r>   1.0476  1.0000</r>
       <r>   1.0476  1.0000</r>
       <r>   1.0476  1.0000</r>
       <r>   1.0476  1.0000</r>
       <r>   1.0477  1.0000</r>
       <r>   1.0479  1.0000</r>
       <r>   3.3123  1.0000</r>
       <r>   3.3128  1.0000</r>
       <r>   3.3128  1.0000</r>
       <r>   3.3140  1.0000</r>
       <r>   3.3143  1.0000</r>
       <r>   3.3143  1.0000</r>
       <r>   3.3143  1.0000</r>
       <r>   3.3143  1.0000</r>
       <r>   3.3147  1.0000</r>
       <r>   3.3157  1.0000</r>
       <r>   3.3157  1.0000</r>
       <r>   3.3162  1.0000</r>
       <r>   3.3409  1.0000</r>
       <r>   3.3409  1.0000</r>
       <r>   3.3409  1.0000</r>
       <r>   3.3410  1.0000</r>
       <r>   5.4301  0.0000</r>
       <r>   5.4301  0.0000</r>
       <r>   5.4302  0.0000</r>
       <r>   7.6538  0.0000</r>
       <r>   7.6538  0.0000</r>
       <r>   7.6538  0.0000</r>
       <r>   7.6538  0.0000</r>
       <r>   9.9514  0.0000</r>
       <r>   9.9514  0.0000</r>
       <r>   9.9541  0.0000</r>
       <r>   9.9541  0.0000</r>
       <r>   9.9546  0.0000</r>
       <r>   9.9546  0.0000</r>
       <r>   9.9546  0.0000</r>
       <r>   9.9546  0.0000</r>
       <r>   9.9550  0.0000</r>
       <r>   9.9550  0.0000</r>
       <r>   9.9577  0.0000</r>
       <r>   9.9577  0.0000</r>
       <r>  10.8709  0.0000</r>
       <r>  10.8710  0.0000</r>
       <r>  10.8710  0.0000</r>
       <r>  11.2136  0.0000</r>
       <r>  11.2136  0.0000</r>
       <r>  11.2137  0.0000</r>
       <r>  11.2137  0.0000</r>
       <r>  11.2137  0.0000</r>
       <r>  11.2138  0.0000</r>
       <r>  12.2278  0.0000</r>
      </set>
      <set comment="kpoint 2">
       <r>  -4.1685  1.0000</r>
       <r>  -2.8563  1.0000</r>
       <r>  -2.8540  1.0000</r>
       <r>  -2.8540  1.0000</r>
       <r>  -2.7942  1.0000</r>
       <r>  -2.7942  1.0000</r>
       <r>  -2.7942  1.0000</r>
       <r>  -2.7942  1.0000</r>
       <r>  -2.7076  1.0000</r>
       <r>  -2.7044  1.0000</r>
       <r>  -2.7044  1.0000</r>
       <r>  -2.4740  1.0000</r>
       <r>  -2.3514  1.0000</r>
       <r>  -2.3514  1.0000</r>
       <r>  -2.3513  1.0000</r>
       <r>  -2.3513  1.0000</r>
       <r>  -2.3211  1.0000</r>
       <r>  -2.0909  1.0000</r>
       <r>  -2.0907  1.0000</r>
       <r>  -2.0679  1.0000</r>
       <r>  -2.0637  1.0000</r>
       <r>  -2.0637  1.0000</r>
       <r>  -2.0637  1.0000</r>
       <r>  -2.0636  1.0000</r>
       <r>  -1.9602  1.0000</r>
       <r>  -1.9602  1.0000</r>
       <r>  -1.9602  1.0000</r>
       <r>  -1.9601  1.0000</r>
       <r>  -1.8612  1.0000</r>
       <r>  -1.7858  1.0000</r>
       <r>  -1.7858  1.0000</r>
       <r>  -1.7858  1.0000</r>
       <r>  -1.7858  1.0000</r>
       <r>  -1.7257  1.0000</r>
       <r>  -1.7257  1.0000</r>
       <r>  -1.7257  1.0000</r>
       <r>  -1.7257  1.0000</r>
       <r>  -1.6918  1.0000</r>
       <r>  -1.6918  1.0000</r>
       <r>  -1.6918  1.0000</r>
       <r>  -1.6918  1.0000</r>
       <r>  -1.6180  1.0000</r>
       <r>  -1.6180  1.0000</r>
       <r>  -1.5192  1.0000</r>
       <r>  -1.5192  1.0000</r>
       <r>  -1.5192  1.0000</r>
       <r>  -1.5191  1.0000</r>
       <r>  -1.4445  1.0000</r>
       <r>  -1.4441  1.0000</r>
       <r>  -1.4441  1.0000</r>
       <r>  -1.4441  1.0000</r>
       <r>  -1.4334  1.0000</r>
       <r>  -1.4334  1.0000</r>
       <r>  -1.4334  1.0000</r>
       <r>  -1.4331  1.0000</r>
       <r>  -1.4198  1.0000</r>
       <r>  -1.4198  1.0000</r>
       <r>  -1.4198  1.0000</r>
       <r>  -1.4198  1.0000</r>
       <r>  -1.4152  1.0000</r>
       <r>  -1.4152  1.0000</r>
       <r>  -1.4152  1.0000</r>
       <r>  -1.4149  1.0000</r>
       <r>  -1.1999  1.0000</r>
       <r>  -1.1999  1.0000</r>
       <r>  -1.1500  1.0000</r>
       <r>  -1.1500  1.0000</r>
       <r>  -1.1500  1.0000</r>
       <r>  -1.1500  1.0000</r>
       <r>  -1.1394  1.0000</r>
       <r>  -1.1394  1.0000</r>
       <r>  -1.1394  1.0000</r>
       <r>  -1.1394  1.0000</r>
       <r>  -1.1295  1.0000</r>
       <r>  -1.1148  1.0000</r>
       <r>  -1.1148  1.0000</r>
       <r>  -1.1121  1.0000</r>
       <r>  -1.1121  1.0000</r>
       <r>  -1.1120  1.0000</r>
       <r>  -1.1120  1.0000</r>
       <r>  -1.0702  1.0000</r>
       <r>  -1.0702  1.0000</r>
       <r>  -1.0701  1.0000</r>
       <r>  -1.0701  1.0000</r>
       <r>  -1.0164  1.0000</r>
       <r>  -1.0164  1.0000</r>
       <r>  -1.0164  1.0000</r>
       <r>  -1.0163  1.0000</r>
       <r>  -0.4595  1.0000</r>
       <r>  -0.4594  1.0000</r>
       <r>  -0.4594  1.0000</r>
       <r>  -0.4594  1.0000</r>
       <r>  -0.4185  1.0000</r>
       <r>  -0.4185  1.0000</r>
       <r>  -0.4184  1.0000</r>
       <r>  -0.4184  1.0000</r>
       <r>  -0.3819  1.0000</r>
       <r>  -0.3819  1.0000</r>
       <r>  -0.3818  1.0000</r>
       <r>  -0.3818  1.0000</r>
       <r>  -0.3286  1.0000</r>
       <r>  -0.3286  1.0000</r>
       <r>  -0.3226  1.0000</r>
       <r>  -0.3226  1.0000</r>
       <r>  -0.3226  1.0000</r>
       <r>  -0.3226  1.0000</r>
       <r>  -0.2655  1.0000</r>
       <r>  -0.1943  1.0000</r>
       <r>  -0.1943  1.0000</r>
       <r>  -0.1943  1.0000</r>
       <r>  -0.1943  1.0000</r>
       <r>  -0.0720  1.0000</r>
       <r>  -0.0720  1.0000</r>
       <r>  -0.0718  1.0000</r>
       <r>  -0.0718  1.0000</r>
       <r>  -0.0539  1.0000</r>
       <r>  -0.0539  1.0000</r>
       <r>  -0.0271  1.0000</r>
       <r>  -0.0162  1.0000</r>
       <r>  -0.0121  1.0000</r>
       <r>  -0.0119  1.0000</r>
       <r>  -0.0119  1.0000</r>
       <r>  -0.0119  1.0000</r>
       <r>   0.0074  1.0000</r>
       <r>   0.0076  1.0000</r>
       <r>   0.0273  1.0000</r>
       <r>   0.0273  1.0000</r>
       <r>   0.0273  1.0000</r>
       <r>   0.0274  1.0000</r>
       <r>   0.0515  1.0000</r>
       <r>   0.0516  1.0000</r>
       <r>   0.0516  1.0000</r>
       <r>   0.0516  1.0000</r>
       <r>   0.0711  1.0000</r>
       <r>   0.0711  1.0000</r>
       <r>   0.0712  1.0000</r>
       <r>   0.0712  1.0000</r>
       <r>   0.2279  1.0000</r>
       <r>   0.3232  1.0000</r>
       <r>   0.3883  1.0000</r>
       <r>   0.3883  1.0000</r>
       <r>   0.3883  1.0000</r>
       <r>   0.3883  1.0000</r>
       <r>   0.4291  1.0000</r>
       <r>   0.7823  1.0000</r>
       <r>   0.7824  1.0000</r>
       <r>   0.7891  1.0000</r>
       <r>   0.7944  1.0000</r>
       <r>   0.7944  1.0000</r>
       <r>   0.7944  1.0000</r>
       <r>   0.7945  1.0000</r>
       <r>   0.8165  1.0000</r>
       <r>   0.8165  1.0000</r>
       <r>   0.8165  1.0000</r>
       <r>   0.8165  1.0000</r>
       <r>   1.0076  1.0000</r>
       <r>   1.0076  1.0000</r>
       <r>   1.0337  1.0000</r>
       <r>   1.0337  1.0000</r>
       <r>   1.0337  1.0000</r>
       <r>   1.0337  1.0000</r>
       <r>   1.0338  1.0000</r>
       <r>   1.0338  1.0000</r>
       <r>   1.0462  1.0000</r>
       <r>   1.0465  1.0000</r>
       <r>   1.0476  1.0000</r>
       <r>   1.0479  1.0000</r>
       <r>   2.9250  1.0000</r>
       <r>   2.9250  1.0000</r>
       <r>   2.9250  1.0000</r>
       <r>   2.9250  1.0000</r>
       <r>   3.3151  1.0000</r>
       <r>   3.3152  1.0000</r>
       <r>   3.3152  1.0000</r>
       <r>   3.3152  1.0000</r>
       <r>   3.3414  1.0000</r>
       <r>   3.3414  1.0000</r>
       <r>   3.3414  1.0000</r>
       <r>   3.3415  1.0000</r>
       <r>   3.7358  1.0000</r>
       <r>   3.7358  1.0000</r>
       <r>   3.7358  1.0000</r>
       <r>   3.7358  1.0000</r>
       <r>   5.3021  0.0000</r>
       <r>   5.4841  0.0000</r>
       <r>   5.4841  0.0000</r>
       <r>   7.7104  0.0000</r>
       <r>   7.7104  0.0000</r>
       <r>   7.7104  0.0000</r>
       <r>   7.7104  0.0000</r>
       <r>   9.4249  0.0000</r>
       <r>   9.4249  0.0000</r>
       <r>   9.6364  0.0000</r>
       <r>   9.6364  0.0000</r>
       <r>   9.6364  0.0000</r>
       <r>   9.6364  0.0000</r>
       <r>   9.9848  0.0000</r>
       <r>   9.9848  0.0000</r>
       <r>   9.9848  0.0000</r>
       <r>   9.9848  0.0000</r>
       <r>  10.4894  0.0000</r>
       <r>  10.4894  0.0000</r>
       <r>  10.8733  0.0000</r>
       <r>  10.8733  0.0000</r>
       <r>  11.0272  0.0000</r>
       <r>  11.1977  0.0000</r>
       <r>  11.1977  0.0000</r>
       <r>  11.3863  0.0000</r>
       <r>  11.3863  0.0000</r>
       <r>  11.3863  0.0000</r>
       <r>  11.3863  0.0000</r>
       <r>  12.2722  0.0000</r>
      </set>
      <set comment="kpoint 3">
       <r>  -4.1123  1.0000</r>
       <r>  -2.8325  1.0000</r>
       <r>  -2.8233  1.0000</r>
       <r>  -2.8233  1.0000</r>
       <r>  -2.7657  1.0000</r>
       <r>  -2.7657  1.0000</r>
       <r>  -2.7657  1.0000</r>
       <r>  -2.7657  1.0000</r>
       <r>  -2.6895  1.0000</r>
       <r>  -2.6767  1.0000</r>
       <r>  -2.6767  1.0000</r>
       <r>  -2.6465  1.0000</r>
       <r>  -2.3327  1.0000</r>
       <r>  -2.3137  1.0000</r>
       <r>  -2.3136  1.0000</r>
       <r>  -2.3136  1.0000</r>
       <r>  -2.3136  1.0000</r>
       <r>  -2.1671  1.0000</r>
       <r>  -2.1446  1.0000</r>
       <r>  -2.1445  1.0000</r>
       <r>  -2.0400  1.0000</r>
       <r>  -2.0400  1.0000</r>
       <r>  -2.0400  1.0000</r>
       <r>  -2.0400  1.0000</r>
       <r>  -1.9449  1.0000</r>
       <r>  -1.9448  1.0000</r>
       <r>  -1.9448  1.0000</r>
       <r>  -1.9447  1.0000</r>
       <r>  -1.9277  1.0000</r>
       <r>  -1.9277  1.0000</r>
       <r>  -1.9277  1.0000</r>
       <r>  -1.9276  1.0000</r>
       <r>  -1.8045  1.0000</r>
       <r>  -1.8045  1.0000</r>
       <r>  -1.7573  1.0000</r>
       <r>  -1.7399  1.0000</r>
       <r>  -1.7399  1.0000</r>
       <r>  -1.7399  1.0000</r>
       <r>  -1.7399  1.0000</r>
       <r>  -1.6831  1.0000</r>
       <r>  -1.6831  1.0000</r>
       <r>  -1.6831  1.0000</r>
       <r>  -1.6831  1.0000</r>
       <r>  -1.5687  1.0000</r>
       <r>  -1.5687  1.0000</r>
       <r>  -1.5687  1.0000</r>
       <r>  -1.5687  1.0000</r>
       <r>  -1.4300  1.0000</r>
       <r>  -1.4300  1.0000</r>
       <r>  -1.4300  1.0000</r>
       <r>  -1.4299  1.0000</r>
       <r>  -1.4209  1.0000</r>
       <r>  -1.4202  1.0000</r>
       <r>  -1.4202  1.0000</r>
       <r>  -1.4202  1.0000</r>
       <r>  -1.4127  1.0000</r>
       <r>  -1.4126  1.0000</r>
       <r>  -1.4126  1.0000</r>
       <r>  -1.4121  1.0000</r>
       <r>  -1.3789  1.0000</r>
       <r>  -1.3789  1.0000</r>
       <r>  -1.3789  1.0000</r>
       <r>  -1.3788  1.0000</r>
       <r>  -1.1921  1.0000</r>
       <r>  -1.1921  1.0000</r>
       <r>  -1.1921  1.0000</r>
       <r>  -1.1921  1.0000</r>
       <r>  -1.1602  1.0000</r>
       <r>  -1.1602  1.0000</r>
       <r>  -1.1601  1.0000</r>
       <r>  -1.1601  1.0000</r>
       <r>  -1.1524  1.0000</r>
       <r>  -1.1183  1.0000</r>
       <r>  -1.1180  1.0000</r>
       <r>  -1.1180  1.0000</r>
       <r>  -1.1180  1.0000</r>
       <r>  -1.1156  1.0000</r>
       <r>  -1.1156  1.0000</r>
       <r>  -1.1156  1.0000</r>
       <r>  -1.1153  1.0000</r>
       <r>  -1.0936  1.0000</r>
       <r>  -1.0936  1.0000</r>
       <r>  -0.9706  1.0000</r>
       <r>  -0.9706  1.0000</r>
       <r>  -0.8834  1.0000</r>
       <r>  -0.8834  1.0000</r>
       <r>  -0.8834  1.0000</r>
       <r>  -0.8834  1.0000</r>
       <r>  -0.5376  1.0000</r>
       <r>  -0.5375  1.0000</r>
       <r>  -0.5375  1.0000</r>
       <r>  -0.5375  1.0000</r>
       <r>  -0.4916  1.0000</r>
       <r>  -0.4916  1.0000</r>
       <r>  -0.4916  1.0000</r>
       <r>  -0.4916  1.0000</r>
       <r>  -0.4565  1.0000</r>
       <r>  -0.4565  1.0000</r>
       <r>  -0.3657  1.0000</r>
       <r>  -0.3608  1.0000</r>
       <r>  -0.3608  1.0000</r>
       <r>  -0.3608  1.0000</r>
       <r>  -0.3606  1.0000</r>
       <r>  -0.3106  1.0000</r>
       <r>  -0.3106  1.0000</r>
       <r>  -0.3105  1.0000</r>
       <r>  -0.3105  1.0000</r>
       <r>  -0.1958  1.0000</r>
       <r>  -0.1958  1.0000</r>
       <r>  -0.1958  1.0000</r>
       <r>  -0.1957  1.0000</r>
       <r>  -0.1200  1.0000</r>
       <r>  -0.1200  1.0000</r>
       <r>  -0.1200  1.0000</r>
       <r>  -0.1200  1.0000</r>
       <r>  -0.0502  1.0000</r>
       <r>  -0.0125  1.0000</r>
       <r>  -0.0125  1.0000</r>
       <r>  -0.0125  1.0000</r>
       <r>  -0.0125  1.0000</r>
       <r>  -0.0062  1.0000</r>
       <r>   0.0623  1.0000</r>
       <r>   0.0624  1.0000</r>
       <r>   0.0887  1.0000</r>
       <r>   0.0887  1.0000</r>
       <r>   0.1109  1.0000</r>
       <r>   0.1110  1.0000</r>
       <r>   0.1110  1.0000</r>
       <r>   0.1110  1.0000</r>
       <r>   0.1625  1.0000</r>
       <r>   0.1625  1.0000</r>
       <r>   0.1626  1.0000</r>
       <r>   0.1626  1.0000</r>
       <r>   0.1652  1.0000</r>
       <r>   0.1652  1.0000</r>
       <r>   0.1653  1.0000</r>
       <r>   0.1653  1.0000</r>
       <r>   0.2717  1.0000</r>
       <r>   0.4597  1.0000</r>
       <r>   0.4597  1.0000</r>
       <r>   0.4597  1.0000</r>
       <r>   0.4597  1.0000</r>
       <r>   0.4816  1.0000</r>
       <r>   0.6146  1.0000</r>
       <r>   0.7043  1.0000</r>
       <r>   0.7043  1.0000</r>
       <r>   0.7043  1.0000</r>
       <r>   0.7043  1.0000</r>
       <r>   0.7515  1.0000</r>
       <r>   0.7515  1.0000</r>
       <r>   0.7782  1.0000</r>
       <r>   0.7894  1.0000</r>
       <r>   0.7894  1.0000</r>
       <r>   0.7894  1.0000</r>
       <r>   0.7894  1.0000</r>
       <r>   0.8966  1.0000</r>
       <r>   0.8966  1.0000</r>
       <r>   0.9927  1.0000</r>
       <r>   0.9927  1.0000</r>
       <r>   0.9928  1.0000</r>
       <r>   0.9928  1.0000</r>
       <r>   0.9962  1.0000</r>
       <r>   0.9962  1.0000</r>
       <r>   1.0462  1.0000</r>
       <r>   1.0465  1.0000</r>
       <r>   1.0475  1.0000</r>
       <r>   1.0479  1.0000</r>
       <r>   2.5648  1.0000</r>
       <r>   2.5648  1.0000</r>
       <r>   2.5648  1.0000</r>
       <r>   2.5648  1.0000</r>
       <r>   3.3176  1.0000</r>
       <r>   3.3177  1.0000</r>
       <r>   3.3177  1.0000</r>
       <r>   3.3177  1.0000</r>
       <r>   3.3425  1.0000</r>
       <r>   3.3425  1.0000</r>
       <r>   3.3425  1.0000</r>
       <r>   3.3426  1.0000</r>
       <r>   4.1919  0.0000</r>
       <r>   4.1919  0.0000</r>
       <r>   4.1919  0.0000</r>
       <r>   4.1919  0.0000</r>
       <r>   4.9560  0.0000</r>
       <r>   5.6403  0.0000</r>
       <r>   5.6403  0.0000</r>
       <r>   7.8771  0.0000</r>
       <r>   7.8771  0.0000</r>
       <r>   7.8771  0.0000</r>
       <r>   7.8771  0.0000</r>
       <r>   8.9039  0.0000</r>
       <r>   8.9039  0.0000</r>
       <r>   9.0189  0.0000</r>
       <r>   9.0189  0.0000</r>
       <r>   9.0190  0.0000</r>
       <r>   9.0190  0.0000</r>
       <r>  10.0746  0.0000</r>
       <r>  10.0746  0.0000</r>
       <r>  10.0746  0.0000</r>
       <r>  10.0746  0.0000</r>
       <r>  10.8804  0.0000</r>
       <r>  10.8804  0.0000</r>
       <r>  11.0260  0.0000</r>
       <r>  11.0260  0.0000</r>
       <r>  11.1570  0.0000</r>
       <r>  11.1570  0.0000</r>
       <r>  11.4578  0.0000</r>
       <r>  11.5811  0.0000</r>
       <r>  11.5811  0.0000</r>
       <r>  11.5811  0.0000</r>
       <r>  11.5811  0.0000</r>
       <r>  11.9794  0.0000</r>
      </set>
      <set comment="kpoint 4">
       <r>  -4.0195  1.0000</r>
       <r>  -2.8615  1.0000</r>
       <r>  -2.7936  1.0000</r>
       <r>  -2.7731  1.0000</r>
       <r>  -2.7731  1.0000</r>
       <r>  -2.7184  1.0000</r>
       <r>  -2.7184  1.0000</r>
       <r>  -2.7184  1.0000</r>
       <r>  -2.7184  1.0000</r>
       <r>  -2.6595  1.0000</r>
       <r>  -2.6307  1.0000</r>
       <r>  -2.6307  1.0000</r>
       <r>  -2.3804  1.0000</r>
       <r>  -2.2615  1.0000</r>
       <r>  -2.2525  1.0000</r>
       <r>  -2.2524  1.0000</r>
       <r>  -2.2523  1.0000</r>
       <r>  -2.2523  1.0000</r>
       <r>  -2.2248  1.0000</r>
       <r>  -2.2247  1.0000</r>
       <r>  -2.0774  1.0000</r>
       <r>  -2.0774  1.0000</r>
       <r>  -2.0774  1.0000</r>
       <r>  -2.0774  1.0000</r>
       <r>  -2.0022  1.0000</r>
       <r>  -2.0022  1.0000</r>
       <r>  -2.0022  1.0000</r>
       <r>  -2.0022  1.0000</r>
       <r>  -1.9747  1.0000</r>
       <r>  -1.9747  1.0000</r>
       <r>  -1.9194  1.0000</r>
       <r>  -1.9194  1.0000</r>
       <r>  -1.9194  1.0000</r>
       <r>  -1.9194  1.0000</r>
       <r>  -1.7531  1.0000</r>
       <r>  -1.7531  1.0000</r>
       <r>  -1.7531  1.0000</r>
       <r>  -1.7531  1.0000</r>
       <r>  -1.6993  1.0000</r>
       <r>  -1.6993  1.0000</r>
       <r>  -1.6993  1.0000</r>
       <r>  -1.6993  1.0000</r>
       <r>  -1.6553  1.0000</r>
       <r>  -1.6236  1.0000</r>
       <r>  -1.6236  1.0000</r>
       <r>  -1.6236  1.0000</r>
       <r>  -1.6235  1.0000</r>
       <r>  -1.4440  1.0000</r>
       <r>  -1.4440  1.0000</r>
       <r>  -1.4440  1.0000</r>
       <r>  -1.4440  1.0000</r>
       <r>  -1.4098  1.0000</r>
       <r>  -1.4088  1.0000</r>
       <r>  -1.4088  1.0000</r>
       <r>  -1.4087  1.0000</r>
       <r>  -1.4049  1.0000</r>
       <r>  -1.4049  1.0000</r>
       <r>  -1.4049  1.0000</r>
       <r>  -1.4039  1.0000</r>
       <r>  -1.3406  1.0000</r>
       <r>  -1.3406  1.0000</r>
       <r>  -1.3406  1.0000</r>
       <r>  -1.3405  1.0000</r>
       <r>  -1.2818  1.0000</r>
       <r>  -1.2818  1.0000</r>
       <r>  -1.2818  1.0000</r>
       <r>  -1.2818  1.0000</r>
       <r>  -1.1900  1.0000</r>
       <r>  -1.1764  1.0000</r>
       <r>  -1.1764  1.0000</r>
       <r>  -1.1764  1.0000</r>
       <r>  -1.1764  1.0000</r>
       <r>  -1.1596  1.0000</r>
       <r>  -1.1596  1.0000</r>
       <r>  -1.1596  1.0000</r>
       <r>  -1.1595  1.0000</r>
       <r>  -1.0826  1.0000</r>
       <r>  -1.0826  1.0000</r>
       <r>  -1.0826  1.0000</r>
       <r>  -1.0826  1.0000</r>
       <r>  -1.0585  1.0000</r>
       <r>  -1.0585  1.0000</r>
       <r>  -0.7300  1.0000</r>
       <r>  -0.7300  1.0000</r>
       <r>  -0.6980  1.0000</r>
       <r>  -0.6980  1.0000</r>
       <r>  -0.6980  1.0000</r>
       <r>  -0.6980  1.0000</r>
       <r>  -0.6522  1.0000</r>
       <r>  -0.6521  1.0000</r>
       <r>  -0.6521  1.0000</r>
       <r>  -0.6521  1.0000</r>
       <r>  -0.6310  1.0000</r>
       <r>  -0.6310  1.0000</r>
       <r>  -0.6310  1.0000</r>
       <r>  -0.6310  1.0000</r>
       <r>  -0.5760  1.0000</r>
       <r>  -0.5760  1.0000</r>
       <r>  -0.3913  1.0000</r>
       <r>  -0.2745  1.0000</r>
       <r>  -0.2744  1.0000</r>
       <r>  -0.2744  1.0000</r>
       <r>  -0.2744  1.0000</r>
       <r>  -0.2344  1.0000</r>
       <r>  -0.2344  1.0000</r>
       <r>  -0.2344  1.0000</r>
       <r>  -0.2344  1.0000</r>
       <r>  -0.1977  1.0000</r>
       <r>  -0.1977  1.0000</r>
       <r>  -0.1977  1.0000</r>
       <r>  -0.1976  1.0000</r>
       <r>  -0.1543  1.0000</r>
       <r>  -0.1543  1.0000</r>
       <r>  -0.1543  1.0000</r>
       <r>  -0.1543  1.0000</r>
       <r>  -0.0874  1.0000</r>
       <r>  -0.0155  1.0000</r>
       <r>  -0.0155  1.0000</r>
       <r>  -0.0155  1.0000</r>
       <r>  -0.0155  1.0000</r>
       <r>   0.0100  1.0000</r>
       <r>   0.1442  1.0000</r>
       <r>   0.1442  1.0000</r>
       <r>   0.1794  1.0000</r>
       <r>   0.1794  1.0000</r>
       <r>   0.1794  1.0000</r>
       <r>   0.1795  1.0000</r>
       <r>   0.2132  1.0000</r>
       <r>   0.2134  1.0000</r>
       <r>   0.2134  1.0000</r>
       <r>   0.2134  1.0000</r>
       <r>   0.2225  1.0000</r>
       <r>   0.2320  1.0000</r>
       <r>   0.2320  1.0000</r>
       <r>   0.2716  1.0000</r>
       <r>   0.2716  1.0000</r>
       <r>   0.2716  1.0000</r>
       <r>   0.2716  1.0000</r>
       <r>   0.5327  1.0000</r>
       <r>   0.5642  1.0000</r>
       <r>   0.5642  1.0000</r>
       <r>   0.5642  1.0000</r>
       <r>   0.5642  1.0000</r>
       <r>   0.6274  1.0000</r>
       <r>   0.6274  1.0000</r>
       <r>   0.6274  1.0000</r>
       <r>   0.6274  1.0000</r>
       <r>   0.7010  1.0000</r>
       <r>   0.7010  1.0000</r>
       <r>   0.7275  1.0000</r>
       <r>   0.7275  1.0000</r>
       <r>   0.7450  1.0000</r>
       <r>   0.7450  1.0000</r>
       <r>   0.7450  1.0000</r>
       <r>   0.7450  1.0000</r>
       <r>   0.7602  1.0000</r>
       <r>   0.9273  1.0000</r>
       <r>   0.9273  1.0000</r>
       <r>   0.9273  1.0000</r>
       <r>   0.9273  1.0000</r>
       <r>   0.9352  1.0000</r>
       <r>   0.9352  1.0000</r>
       <r>   1.0463  1.0000</r>
       <r>   1.0466  1.0000</r>
       <r>   1.0474  1.0000</r>
       <r>   1.0478  1.0000</r>
       <r>   1.0726  1.0000</r>
       <r>   2.2302  1.0000</r>
       <r>   2.2302  1.0000</r>
       <r>   2.2302  1.0000</r>
       <r>   2.2302  1.0000</r>
       <r>   3.3214  1.0000</r>
       <r>   3.3215  1.0000</r>
       <r>   3.3216  1.0000</r>
       <r>   3.3216  1.0000</r>
       <r>   3.3432  1.0000</r>
       <r>   3.3432  1.0000</r>
       <r>   3.3432  1.0000</r>
       <r>   3.3433  1.0000</r>
       <r>   4.4690  0.0000</r>
       <r>   4.6841  0.0000</r>
       <r>   4.6841  0.0000</r>
       <r>   4.6841  0.0000</r>
       <r>   4.6841  0.0000</r>
       <r>   5.8845  0.0000</r>
       <r>   5.8845  0.0000</r>
       <r>   8.1457  0.0000</r>
       <r>   8.1457  0.0000</r>
       <r>   8.1457  0.0000</r>
       <r>   8.1457  0.0000</r>
       <r>   8.3426  0.0000</r>
       <r>   8.3426  0.0000</r>
       <r>   8.3427  0.0000</r>
       <r>   8.3427  0.0000</r>
       <r>   8.3950  0.0000</r>
       <r>   8.3950  0.0000</r>
       <r>  10.2215  0.0000</r>
       <r>  10.2215  0.0000</r>
       <r>  10.2215  0.0000</r>
       <r>  10.2215  0.0000</r>
       <r>  10.8926  0.0000</r>
       <r>  10.8926  0.0000</r>
       <r>  11.1054  0.0000</r>
       <r>  11.1054  0.0000</r>
       <r>  11.2851  0.0000</r>
       <r>  11.2851  0.0000</r>
       <r>  11.2851  0.0000</r>
       <r>  11.2852  0.0000</r>
       <r>  11.5605  0.0000</r>
       <r>  11.5611  0.0000</r>
       <r>  11.7057  0.0000</r>
       <r>  11.7057  0.0000</r>
      </set>
      <set comment="kpoint 5">
       <r>  -3.8914  1.0000</r>
       <r>  -3.0942  1.0000</r>
       <r>  -2.7410  1.0000</r>
       <r>  -2.7052  1.0000</r>
       <r>  -2.7052  1.0000</r>
       <r>  -2.6527  1.0000</r>
       <r>  -2.6527  1.0000</r>
       <r>  -2.6527  1.0000</r>
       <r>  -2.6527  1.0000</r>
       <r>  -2.6180  1.0000</r>
       <r>  -2.5663  1.0000</r>
       <r>  -2.5663  1.0000</r>
       <r>  -2.4486  1.0000</r>
       <r>  -2.3498  1.0000</r>
       <r>  -2.3214  1.0000</r>
       <r>  -2.3213  1.0000</r>
       <r>  -2.2205  1.0000</r>
       <r>  -2.2205  1.0000</r>
       <r>  -2.2205  1.0000</r>
       <r>  -2.2205  1.0000</r>
       <r>  -2.1700  1.0000</r>
       <r>  -2.1700  1.0000</r>
       <r>  -2.1700  1.0000</r>
       <r>  -2.1699  1.0000</r>
       <r>  -2.1281  1.0000</r>
       <r>  -2.1281  1.0000</r>
       <r>  -1.9530  1.0000</r>
       <r>  -1.9529  1.0000</r>
       <r>  -1.9529  1.0000</r>
       <r>  -1.9529  1.0000</r>
       <r>  -1.8850  1.0000</r>
       <r>  -1.8850  1.0000</r>
       <r>  -1.8850  1.0000</r>
       <r>  -1.8849  1.0000</r>
       <r>  -1.7704  1.0000</r>
       <r>  -1.7703  1.0000</r>
       <r>  -1.7703  1.0000</r>
       <r>  -1.7703  1.0000</r>
       <r>  -1.7566  1.0000</r>
       <r>  -1.7566  1.0000</r>
       <r>  -1.7566  1.0000</r>
       <r>  -1.7566  1.0000</r>
       <r>  -1.6811  1.0000</r>
       <r>  -1.6811  1.0000</r>
       <r>  -1.6811  1.0000</r>
       <r>  -1.6810  1.0000</r>
       <r>  -1.5573  1.0000</r>
       <r>  -1.4578  1.0000</r>
       <r>  -1.4578  1.0000</r>
       <r>  -1.4578  1.0000</r>
       <r>  -1.4578  1.0000</r>
       <r>  -1.4047  1.0000</r>
       <r>  -1.4040  1.0000</r>
       <r>  -1.4040  1.0000</r>
       <r>  -1.4040  1.0000</r>
       <r>  -1.3968  1.0000</r>
       <r>  -1.3968  1.0000</r>
       <r>  -1.3968  1.0000</r>
       <r>  -1.3961  1.0000</r>
       <r>  -1.3639  1.0000</r>
       <r>  -1.3639  1.0000</r>
       <r>  -1.3639  1.0000</r>
       <r>  -1.3638  1.0000</r>
       <r>  -1.3091  1.0000</r>
       <r>  -1.3091  1.0000</r>
       <r>  -1.3090  1.0000</r>
       <r>  -1.3090  1.0000</r>
       <r>  -1.2414  1.0000</r>
       <r>  -1.1977  1.0000</r>
       <r>  -1.1977  1.0000</r>
       <r>  -1.1977  1.0000</r>
       <r>  -1.1977  1.0000</r>
       <r>  -1.1643  1.0000</r>
       <r>  -1.1643  1.0000</r>
       <r>  -1.1643  1.0000</r>
       <r>  -1.1642  1.0000</r>
       <r>  -1.0339  1.0000</r>
       <r>  -1.0339  1.0000</r>
       <r>  -1.0339  1.0000</r>
       <r>  -1.0339  1.0000</r>
       <r>  -1.0097  1.0000</r>
       <r>  -1.0097  1.0000</r>
       <r>  -0.7991  1.0000</r>
       <r>  -0.7991  1.0000</r>
       <r>  -0.7991  1.0000</r>
       <r>  -0.7991  1.0000</r>
       <r>  -0.7262  1.0000</r>
       <r>  -0.7262  1.0000</r>
       <r>  -0.7262  1.0000</r>
       <r>  -0.7262  1.0000</r>
       <r>  -0.6859  1.0000</r>
       <r>  -0.6859  1.0000</r>
       <r>  -0.4865  1.0000</r>
       <r>  -0.4865  1.0000</r>
       <r>  -0.4865  1.0000</r>
       <r>  -0.4865  1.0000</r>
       <r>  -0.4805  1.0000</r>
       <r>  -0.4805  1.0000</r>
       <r>  -0.3688  1.0000</r>
       <r>  -0.1993  1.0000</r>
       <r>  -0.1993  1.0000</r>
       <r>  -0.1993  1.0000</r>
       <r>  -0.1993  1.0000</r>
       <r>  -0.1781  1.0000</r>
       <r>  -0.1780  1.0000</r>
       <r>  -0.1780  1.0000</r>
       <r>  -0.1780  1.0000</r>
       <r>  -0.1769  1.0000</r>
       <r>  -0.1769  1.0000</r>
       <r>  -0.1769  1.0000</r>
       <r>  -0.1769  1.0000</r>
       <r>  -0.1658  1.0000</r>
       <r>  -0.1658  1.0000</r>
       <r>  -0.1658  1.0000</r>
       <r>  -0.1656  1.0000</r>
       <r>  -0.1367  1.0000</r>
       <r>  -0.0238  1.0000</r>
       <r>  -0.0238  1.0000</r>
       <r>  -0.0238  1.0000</r>
       <r>  -0.0238  1.0000</r>
       <r>   0.0324  1.0000</r>
       <r>   0.1437  1.0000</r>
       <r>   0.1437  1.0000</r>
       <r>   0.1437  1.0000</r>
       <r>   0.1438  1.0000</r>
       <r>   0.1757  1.0000</r>
       <r>   0.2427  1.0000</r>
       <r>   0.2427  1.0000</r>
       <r>   0.3202  1.0000</r>
       <r>   0.3202  1.0000</r>
       <r>   0.3202  1.0000</r>
       <r>   0.3203  1.0000</r>
       <r>   0.3730  1.0000</r>
       <r>   0.3730  1.0000</r>
       <r>   0.3857  1.0000</r>
       <r>   0.3859  1.0000</r>
       <r>   0.3859  1.0000</r>
       <r>   0.3860  1.0000</r>
       <r>   0.3867  1.0000</r>
       <r>   0.3868  1.0000</r>
       <r>   0.3868  1.0000</r>
       <r>   0.3870  1.0000</r>
       <r>   0.5173  1.0000</r>
       <r>   0.5173  1.0000</r>
       <r>   0.5814  1.0000</r>
       <r>   0.6325  1.0000</r>
       <r>   0.6325  1.0000</r>
       <r>   0.6844  1.0000</r>
       <r>   0.6845  1.0000</r>
       <r>   0.6845  1.0000</r>
       <r>   0.6845  1.0000</r>
       <r>   0.7355  1.0000</r>
       <r>   0.8409  1.0000</r>
       <r>   0.8409  1.0000</r>
       <r>   0.8410  1.0000</r>
       <r>   0.8410  1.0000</r>
       <r>   0.8462  1.0000</r>
       <r>   0.8463  1.0000</r>
       <r>   0.8463  1.0000</r>
       <r>   0.8463  1.0000</r>
       <r>   0.8530  1.0000</r>
       <r>   0.8530  1.0000</r>
       <r>   1.0463  1.0000</r>
       <r>   1.0468  1.0000</r>
       <r>   1.0473  1.0000</r>
       <r>   1.0478  1.0000</r>
       <r>   1.5851  1.0000</r>
       <r>   1.9178  1.0000</r>
       <r>   1.9178  1.0000</r>
       <r>   1.9178  1.0000</r>
       <r>   1.9178  1.0000</r>
       <r>   3.3262  1.0000</r>
       <r>   3.3263  1.0000</r>
       <r>   3.3264  1.0000</r>
       <r>   3.3264  1.0000</r>
       <r>   3.3425  1.0000</r>
       <r>   3.3425  1.0000</r>
       <r>   3.3426  1.0000</r>
       <r>   3.3427  1.0000</r>
       <r>   3.9074  0.0000</r>
       <r>   5.2128  0.0000</r>
       <r>   5.2128  0.0000</r>
       <r>   5.2129  0.0000</r>
       <r>   5.2129  0.0000</r>
       <r>   6.1996  0.0000</r>
       <r>   6.1996  0.0000</r>
       <r>   7.6660  0.0000</r>
       <r>   7.6660  0.0000</r>
       <r>   7.6660  0.0000</r>
       <r>   7.6660  0.0000</r>
       <r>   7.9020  0.0000</r>
       <r>   7.9020  0.0000</r>
       <r>   8.5051  0.0000</r>
       <r>   8.5051  0.0000</r>
       <r>   8.5051  0.0000</r>
       <r>   8.5051  0.0000</r>
       <r>  10.4218  0.0000</r>
       <r>  10.4218  0.0000</r>
       <r>  10.4218  0.0000</r>
       <r>  10.4218  0.0000</r>
       <r>  10.6280  0.0000</r>
       <r>  10.6280  0.0000</r>
       <r>  10.6280  0.0000</r>
       <r>  10.6280  0.0000</r>
       <r>  10.9107  0.0000</r>
       <r>  10.9107  0.0000</r>
       <r>  11.0534  0.0000</r>
       <r>  11.0534  0.0000</r>
       <r>  11.6630  0.0000</r>
       <r>  11.6631  0.0000</r>
       <r>  11.6635  0.0000</r>
       <r>  11.6727  0.0000</r>
      </set>
      <set comment="kpoint 6">
       <r>  -3.7303  1.0000</r>
       <r>  -3.3247  1.0000</r>
       <r>  -2.6767  1.0000</r>
       <r>  -2.6220  1.0000</r>
       <r>  -2.6220  1.0000</r>
       <r>  -2.5692  1.0000</r>
       <r>  -2.5692  1.0000</r>
       <r>  -2.5692  1.0000</r>
       <r>  -2.5691  1.0000</r>
       <r>  -2.5656  1.0000</r>
       <r>  -2.5257  1.0000</r>
       <r>  -2.4836  1.0000</r>
       <r>  -2.4836  1.0000</r>
       <r>  -2.4306  1.0000</r>
       <r>  -2.4247  1.0000</r>
       <r>  -2.4247  1.0000</r>
       <r>  -2.3517  1.0000</r>
       <r>  -2.3517  1.0000</r>
       <r>  -2.3517  1.0000</r>
       <r>  -2.3517  1.0000</r>
       <r>  -2.2643  1.0000</r>
       <r>  -2.2643  1.0000</r>
       <r>  -2.0705  1.0000</r>
       <r>  -2.0705  1.0000</r>
       <r>  -2.0705  1.0000</r>
       <r>  -2.0705  1.0000</r>
       <r>  -1.8973  1.0000</r>
       <r>  -1.8972  1.0000</r>
       <r>  -1.8972  1.0000</r>
       <r>  -1.8972  1.0000</r>
       <r>  -1.8502  1.0000</r>
       <r>  -1.8502  1.0000</r>
       <r>  -1.8502  1.0000</r>
       <r>  -1.8502  1.0000</r>
       <r>  -1.8423  1.0000</r>
       <r>  -1.8423  1.0000</r>
       <r>  -1.8423  1.0000</r>
       <r>  -1.8423  1.0000</r>
       <r>  -1.7988  1.0000</r>
       <r>  -1.7988  1.0000</r>
       <r>  -1.7988  1.0000</r>
       <r>  -1.7988  1.0000</r>
       <r>  -1.7384  1.0000</r>
       <r>  -1.7383  1.0000</r>
       <r>  -1.7383  1.0000</r>
       <r>  -1.7383  1.0000</r>
       <r>  -1.4651  1.0000</r>
       <r>  -1.4651  1.0000</r>
       <r>  -1.4651  1.0000</r>
       <r>  -1.4651  1.0000</r>
       <r>  -1.4651  1.0000</r>
       <r>  -1.4246  1.0000</r>
       <r>  -1.4246  1.0000</r>
       <r>  -1.4246  1.0000</r>
       <r>  -1.4246  1.0000</r>
       <r>  -1.4002  1.0000</r>
       <r>  -1.3993  1.0000</r>
       <r>  -1.3993  1.0000</r>
       <r>  -1.3993  1.0000</r>
       <r>  -1.3942  1.0000</r>
       <r>  -1.3942  1.0000</r>
       <r>  -1.3942  1.0000</r>
       <r>  -1.3933  1.0000</r>
       <r>  -1.3054  1.0000</r>
       <r>  -1.2794  1.0000</r>
       <r>  -1.2794  1.0000</r>
       <r>  -1.2794  1.0000</r>
       <r>  -1.2794  1.0000</r>
       <r>  -1.2228  1.0000</r>
       <r>  -1.2228  1.0000</r>
       <r>  -1.2228  1.0000</r>
       <r>  -1.2228  1.0000</r>
       <r>  -1.1203  1.0000</r>
       <r>  -1.1203  1.0000</r>
       <r>  -1.1203  1.0000</r>
       <r>  -1.1202  1.0000</r>
       <r>  -0.9727  1.0000</r>
       <r>  -0.9726  1.0000</r>
       <r>  -0.9726  1.0000</r>
       <r>  -0.9726  1.0000</r>
       <r>  -0.9476  1.0000</r>
       <r>  -0.9476  1.0000</r>
       <r>  -0.9291  1.0000</r>
       <r>  -0.9290  1.0000</r>
       <r>  -0.9290  1.0000</r>
       <r>  -0.9290  1.0000</r>
       <r>  -0.8169  1.0000</r>
       <r>  -0.8169  1.0000</r>
       <r>  -0.8169  1.0000</r>
       <r>  -0.8169  1.0000</r>
       <r>  -0.7850  1.0000</r>
       <r>  -0.7850  1.0000</r>
       <r>  -0.3196  1.0000</r>
       <r>  -0.2633  1.0000</r>
       <r>  -0.2633  1.0000</r>
       <r>  -0.2633  1.0000</r>
       <r>  -0.2633  1.0000</r>
       <r>  -0.2256  1.0000</r>
       <r>  -0.2256  1.0000</r>
       <r>  -0.1997  1.0000</r>
       <r>  -0.1997  1.0000</r>
       <r>  -0.1997  1.0000</r>
       <r>  -0.1996  1.0000</r>
       <r>  -0.1953  1.0000</r>
       <r>  -0.1905  1.0000</r>
       <r>  -0.1904  1.0000</r>
       <r>  -0.1904  1.0000</r>
       <r>  -0.1904  1.0000</r>
       <r>  -0.1101  1.0000</r>
       <r>  -0.1100  1.0000</r>
       <r>  -0.1100  1.0000</r>
       <r>  -0.1100  1.0000</r>
       <r>  -0.0823  1.0000</r>
       <r>  -0.0823  1.0000</r>
       <r>  -0.0822  1.0000</r>
       <r>  -0.0822  1.0000</r>
       <r>  -0.0405  1.0000</r>
       <r>  -0.0405  1.0000</r>
       <r>  -0.0405  1.0000</r>
       <r>  -0.0405  1.0000</r>
       <r>   0.0607  1.0000</r>
       <r>   0.0831  1.0000</r>
       <r>   0.0831  1.0000</r>
       <r>   0.0832  1.0000</r>
       <r>   0.0832  1.0000</r>
       <r>   0.1329  1.0000</r>
       <r>   0.1818  1.0000</r>
       <r>   0.1818  1.0000</r>
       <r>   0.1818  1.0000</r>
       <r>   0.1818  1.0000</r>
       <r>   0.2809  1.0000</r>
       <r>   0.2809  1.0000</r>
       <r>   0.3479  1.0000</r>
       <r>   0.3479  1.0000</r>
       <r>   0.4245  1.0000</r>
       <r>   0.4245  1.0000</r>
       <r>   0.4245  1.0000</r>
       <r>   0.4245  1.0000</r>
       <r>   0.5062  1.0000</r>
       <r>   0.5062  1.0000</r>
       <r>   0.5062  1.0000</r>
       <r>   0.5062  1.0000</r>
       <r>   0.5090  1.0000</r>
       <r>   0.5090  1.0000</r>
       <r>   0.5483  1.0000</r>
       <r>   0.5483  1.0000</r>
       <r>   0.6094  1.0000</r>
       <r>   0.6094  1.0000</r>
       <r>   0.6094  1.0000</r>
       <r>   0.6094  1.0000</r>
       <r>   0.6270  1.0000</r>
       <r>   0.7047  1.0000</r>
       <r>   0.7386  1.0000</r>
       <r>   0.7386  1.0000</r>
       <r>   0.7386  1.0000</r>
       <r>   0.7386  1.0000</r>
       <r>   0.7523  1.0000</r>
       <r>   0.7523  1.0000</r>
       <r>   1.0464  1.0000</r>
       <r>   1.0469  1.0000</r>
       <r>   1.0472  1.0000</r>
       <r>   1.0478  1.0000</r>
       <r>   1.0890  1.0000</r>
       <r>   1.0890  1.0000</r>
       <r>   1.0890  1.0000</r>
       <r>   1.0890  1.0000</r>
       <r>   1.6248  1.0000</r>
       <r>   1.6248  1.0000</r>
       <r>   1.6248  1.0000</r>
       <r>   1.6248  1.0000</r>
       <r>   2.1382  1.0000</r>
       <r>   3.3148  1.0000</r>
       <r>   3.3314  1.0000</r>
       <r>   3.3314  1.0000</r>
[...]
       <r>  -0.5260  1.0000</r>
       <r>  -0.5260  1.0000</r>
       <r>  -0.5252  1.0000</r>
       <r>  -0.5252  1.0000</r>
       <r>  -0.4929  1.0000</r>
       <r>  -0.4929  1.0000</r>
       <r>  -0.4929  1.0000</r>
       <r>  -0.4929  1.0000</r>
       <r>  -0.4309  1.0000</r>
       <r>  -0.4309  1.0000</r>
       <r>  -0.4309  1.0000</r>
       <r>  -0.4309  1.0000</r>
       <r>  -0.3481  1.0000</r>
       <r>  -0.3481  1.0000</r>
       <r>  -0.3478  1.0000</r>
       <r>  -0.3478  1.0000</r>
       <r>  -0.3478  1.0000</r>
       <r>  -0.3477  1.0000</r>
       <r>  -0.3474  1.0000</r>
       <r>  -0.3474  1.0000</r>
       <r>  -0.0774  1.0000</r>
       <r>  -0.0772  1.0000</r>
       <r>  -0.0772  1.0000</r>
       <r>  -0.0772  1.0000</r>
       <r>  -0.0321  1.0000</r>
       <r>  -0.0321  1.0000</r>
       <r>  -0.0321  1.0000</r>
       <r>  -0.0321  1.0000</r>
       <r>  -0.0175  1.0000</r>
       <r>  -0.0175  1.0000</r>
       <r>  -0.0169  1.0000</r>
       <r>  -0.0169  1.0000</r>
       <r>  -0.0169  1.0000</r>
       <r>  -0.0167  1.0000</r>
       <r>  -0.0164  1.0000</r>
       <r>  -0.0164  1.0000</r>
       <r>   0.1784  1.0000</r>
       <r>   0.1785  1.0000</r>
       <r>   0.1785  1.0000</r>
       <r>   0.1785  1.0000</r>
       <r>   0.2328  1.0000</r>
       <r>   0.2328  1.0000</r>
       <r>   0.2328  1.0000</r>
       <r>   0.2328  1.0000</r>
       <r>   0.3136  1.0000</r>
       <r>   0.3136  1.0000</r>
       <r>   0.3136  1.0000</r>
       <r>   0.3136  1.0000</r>
       <r>   0.8392  1.0000</r>
       <r>   0.8392  1.0000</r>
       <r>   0.8393  1.0000</r>
       <r>   0.8394  1.0000</r>
       <r>   0.8394  1.0000</r>
       <r>   0.8394  1.0000</r>
       <r>   0.8395  1.0000</r>
       <r>   0.8395  1.0000</r>
       <r>   0.8523  1.0000</r>
       <r>   0.8523  1.0000</r>
       <r>   0.8523  1.0000</r>
       <r>   0.8523  1.0000</r>
       <r>   0.8686  1.0000</r>
       <r>   0.8686  1.0000</r>
       <r>   0.8686  1.0000</r>
       <r>   0.8686  1.0000</r>
       <r>   0.8721  1.0000</r>
       <r>   0.8721  1.0000</r>
       <r>   0.8722  1.0000</r>
       <r>   0.8722  1.0000</r>
       <r>   0.8723  1.0000</r>
       <r>   0.8723  1.0000</r>
       <r>   0.8725  1.0000</r>
       <r>   0.8725  1.0000</r>
       <r>   3.6455  1.0000</r>
       <r>   3.6455  1.0000</r>
       <r>   3.6455  1.0000</r>
       <r>   3.6455  1.0000</r>
       <r>   4.4674  0.0000</r>
       <r>   4.4674  0.0000</r>
       <r>   4.4678  0.0000</r>
       <r>   4.4678  0.0000</r>
       <r>   4.4678  0.0000</r>
       <r>   4.4678  0.0000</r>
       <r>   4.4682  0.0000</r>
       <r>   4.4682  0.0000</r>
       <r>   5.3970  0.0000</r>
       <r>   5.3970  0.0000</r>
       <r>   5.3980  0.0000</r>
       <r>   5.3980  0.0000</r>
       <r>   5.3980  0.0000</r>
       <r>   5.3980  0.0000</r>
       <r>   5.3990  0.0000</r>
       <r>   5.3990  0.0000</r>
       <r>   6.2194  0.0000</r>
       <r>   6.2194  0.0000</r>
       <r>   6.2194  0.0000</r>
       <r>   6.2194  0.0000</r>
       <r>   9.1578  0.0000</r>
       <r>   9.1578  0.0000</r>
       <r>   9.1585  0.0000</r>
       <r>   9.1585  0.0000</r>
       <r>   9.1585  0.0000</r>
       <r>   9.1586  0.0000</r>
       <r>   9.1593  0.0000</r>
       <r>   9.1593  0.0000</r>
       <r>   9.7051  0.0000</r>
       <r>   9.7051  0.0000</r>
       <r>   9.7051  0.0000</r>
       <r>   9.7051  0.0000</r>
       <r>  10.7966  0.0000</r>
       <r>  10.7966  0.0000</r>
       <r>  10.7966  0.0000</r>
       <r>  10.7966  0.0000</r>
       <r>  11.3545  0.0000</r>
       <r>  11.3547  0.0000</r>
       <r>  11.3549  0.0000</r>
       <r>  11.3551  0.0000</r>
      </set>
      <set comment="kpoint 195">
       <r>  -2.8371  1.0000</r>
       <r>  -2.8371  1.0000</r>
       <r>  -2.8371  1.0000</r>
       <r>  -2.8371  1.0000</r>
       <r>  -2.7192  1.0000</r>
       <r>  -2.7192  1.0000</r>
       <r>  -2.7192  1.0000</r>
       <r>  -2.7191  1.0000</r>
       <r>  -2.3341  1.0000</r>
       <r>  -2.3339  1.0000</r>
       <r>  -2.3339  1.0000</r>
       <r>  -2.3338  1.0000</r>
       <r>  -2.3336  1.0000</r>
       <r>  -2.3335  1.0000</r>
       <r>  -2.3335  1.0000</r>
       <r>  -2.3335  1.0000</r>
       <r>  -2.3309  1.0000</r>
       <r>  -2.3307  1.0000</r>
       <r>  -2.3307  1.0000</r>
       <r>  -2.3306  1.0000</r>
       <r>  -2.3058  1.0000</r>
       <r>  -2.3058  1.0000</r>
       <r>  -2.3057  1.0000</r>
       <r>  -2.3057  1.0000</r>
       <r>  -2.2857  1.0000</r>
       <r>  -2.2857  1.0000</r>
       <r>  -2.2854  1.0000</r>
       <r>  -2.2853  1.0000</r>
       <r>  -2.2853  1.0000</r>
       <r>  -2.2852  1.0000</r>
       <r>  -2.2849  1.0000</r>
       <r>  -2.2849  1.0000</r>
       <r>  -1.8167  1.0000</r>
       <r>  -1.8167  1.0000</r>
       <r>  -1.8163  1.0000</r>
       <r>  -1.8162  1.0000</r>
       <r>  -1.8162  1.0000</r>
       <r>  -1.8162  1.0000</r>
       <r>  -1.8157  1.0000</r>
       <r>  -1.8157  1.0000</r>
       <r>  -1.7970  1.0000</r>
       <r>  -1.7969  1.0000</r>
       <r>  -1.7969  1.0000</r>
       <r>  -1.7968  1.0000</r>
       <r>  -1.6422  1.0000</r>
       <r>  -1.6422  1.0000</r>
       <r>  -1.6417  1.0000</r>
       <r>  -1.6417  1.0000</r>
       <r>  -1.6417  1.0000</r>
       <r>  -1.6416  1.0000</r>
       <r>  -1.6412  1.0000</r>
       <r>  -1.6412  1.0000</r>
       <r>  -1.6352  1.0000</r>
       <r>  -1.6352  1.0000</r>
       <r>  -1.6352  1.0000</r>
       <r>  -1.6351  1.0000</r>
       <r>  -1.0268  1.0000</r>
       <r>  -1.0268  1.0000</r>
       <r>  -1.0268  1.0000</r>
       <r>  -1.0268  1.0000</r>
       <r>  -0.9305  1.0000</r>
       <r>  -0.9305  1.0000</r>
       <r>  -0.9305  1.0000</r>
       <r>  -0.9305  1.0000</r>
       <r>  -0.9107  1.0000</r>
       <r>  -0.9106  1.0000</r>
       <r>  -0.9106  1.0000</r>
       <r>  -0.9105  1.0000</r>
       <r>  -0.8966  1.0000</r>
       <r>  -0.8966  1.0000</r>
       <r>  -0.8965  1.0000</r>
       <r>  -0.8965  1.0000</r>
       <r>  -0.8843  1.0000</r>
       <r>  -0.8843  1.0000</r>
       <r>  -0.8843  1.0000</r>
       <r>  -0.8843  1.0000</r>
       <r>  -0.7441  1.0000</r>
       <r>  -0.7440  1.0000</r>
       <r>  -0.7440  1.0000</r>
       <r>  -0.7440  1.0000</r>
       <r>  -0.6792  1.0000</r>
       <r>  -0.6792  1.0000</r>
       <r>  -0.6781  1.0000</r>
       <r>  -0.6779  1.0000</r>
       <r>  -0.6777  1.0000</r>
       <r>  -0.6777  1.0000</r>
       <r>  -0.6774  1.0000</r>
       <r>  -0.6774  1.0000</r>
       <r>  -0.6774  1.0000</r>
       <r>  -0.6772  1.0000</r>
       <r>  -0.6758  1.0000</r>
       <r>  -0.6758  1.0000</r>
       <r>  -0.5635  1.0000</r>
       <r>  -0.5635  1.0000</r>
       <r>  -0.5625  1.0000</r>
       <r>  -0.5624  1.0000</r>
       <r>  -0.5624  1.0000</r>
       <r>  -0.5624  1.0000</r>
       <r>  -0.5615  1.0000</r>
       <r>  -0.5615  1.0000</r>
       <r>  -0.5527  1.0000</r>
       <r>  -0.5526  1.0000</r>
       <r>  -0.5525  1.0000</r>
       <r>  -0.5525  1.0000</r>
       <r>  -0.3337  1.0000</r>
       <r>  -0.3336  1.0000</r>
       <r>  -0.3336  1.0000</r>
       <r>  -0.3336  1.0000</r>
       <r>  -0.2997  1.0000</r>
       <r>  -0.2997  1.0000</r>
       <r>  -0.2993  1.0000</r>
       <r>  -0.2993  1.0000</r>
       <r>  -0.2992  1.0000</r>
       <r>  -0.2992  1.0000</r>
       <r>  -0.2988  1.0000</r>
       <r>  -0.2988  1.0000</r>
       <r>  -0.1392  1.0000</r>
       <r>  -0.1392  1.0000</r>
       <r>  -0.1388  1.0000</r>
       <r>  -0.1386  1.0000</r>
       <r>  -0.1386  1.0000</r>
       <r>  -0.1386  1.0000</r>
       <r>  -0.1381  1.0000</r>
       <r>  -0.1381  1.0000</r>
       <r>  -0.1312  1.0000</r>
       <r>  -0.1312  1.0000</r>
       <r>  -0.1312  1.0000</r>
       <r>  -0.1311  1.0000</r>
       <r>   0.0153  1.0000</r>
       <r>   0.0153  1.0000</r>
       <r>   0.0153  1.0000</r>
       <r>   0.0154  1.0000</r>
       <r>   0.1295  1.0000</r>
       <r>   0.1297  1.0000</r>
       <r>   0.1297  1.0000</r>
       <r>   0.1297  1.0000</r>
       <r>   0.1392  1.0000</r>
       <r>   0.1392  1.0000</r>
       <r>   0.1392  1.0000</r>
       <r>   0.1394  1.0000</r>
       <r>   0.2135  1.0000</r>
       <r>   0.2135  1.0000</r>
       <r>   0.2135  1.0000</r>
       <r>   0.2135  1.0000</r>
       <r>   0.8682  1.0000</r>
       <r>   0.8682  1.0000</r>
       <r>   0.8683  1.0000</r>
       <r>   0.8683  1.0000</r>
       <r>   0.8683  1.0000</r>
       <r>   0.8683  1.0000</r>
       <r>   0.8684  1.0000</r>
       <r>   0.8684  1.0000</r>
       <r>   0.8753  1.0000</r>
       <r>   0.8753  1.0000</r>
       <r>   0.8754  1.0000</r>
       <r>   0.8754  1.0000</r>
       <r>   0.8847  1.0000</r>
       <r>   0.8847  1.0000</r>
       <r>   0.8848  1.0000</r>
       <r>   0.8848  1.0000</r>
       <r>   0.8894  1.0000</r>
       <r>   0.8894  1.0000</r>
       <r>   0.8894  1.0000</r>
       <r>   0.8894  1.0000</r>
       <r>   0.8894  1.0000</r>
       <r>   0.8895  1.0000</r>
       <r>   0.8896  1.0000</r>
       <r>   0.8896  1.0000</r>
       <r>   4.2552  0.0000</r>
       <r>   4.2552  0.0000</r>
       <r>   4.2552  0.0000</r>
       <r>   4.2552  0.0000</r>
       <r>   4.6651  0.0000</r>
       <r>   4.6651  0.0000</r>
       <r>   4.6656  0.0000</r>
       <r>   4.6656  0.0000</r>
       <r>   4.6656  0.0000</r>
       <r>   4.6656  0.0000</r>
       <r>   4.6661  0.0000</r>
       <r>   4.6661  0.0000</r>
       <r>   5.1377  0.0000</r>
       <r>   5.1377  0.0000</r>
       <r>   5.1384  0.0000</r>
       <r>   5.1384  0.0000</r>
       <r>   5.1384  0.0000</r>
       <r>   5.1384  0.0000</r>
       <r>   5.1392  0.0000</r>
       <r>   5.1392  0.0000</r>
       <r>   5.5491  0.0000</r>
       <r>   5.5491  0.0000</r>
       <r>   5.5492  0.0000</r>
       <r>   5.5492  0.0000</r>
       <r>   9.6463  0.0000</r>
       <r>   9.6463  0.0000</r>
       <r>   9.6469  0.0000</r>
       <r>   9.6469  0.0000</r>
       <r>   9.6469  0.0000</r>
       <r>   9.6469  0.0000</r>
       <r>   9.6476  0.0000</r>
       <r>   9.6476  0.0000</r>
       <r>   9.9222  0.0000</r>
       <r>   9.9222  0.0000</r>
       <r>   9.9222  0.0000</r>
       <r>   9.9222  0.0000</r>
       <r>  10.4716  0.0000</r>
       <r>  10.4716  0.0000</r>
       <r>  10.4716  0.0000</r>
       <r>  10.4716  0.0000</r>
       <r>  10.7493  0.0000</r>
       <r>  10.7495  0.0000</r>
       <r>  10.7496  0.0000</r>
       <r>  10.7500  0.0000</r>
      </set>
      <set comment="kpoint 196">
       <r>  -2.7827  1.0000</r>
       <r>  -2.7810  1.0000</r>
       <r>  -2.7810  1.0000</r>
       <r>  -2.7810  1.0000</r>
       <r>  -2.7799  1.0000</r>
       <r>  -2.7799  1.0000</r>
       <r>  -2.7799  1.0000</r>
       <r>  -2.7782  1.0000</r>
       <r>  -2.3179  1.0000</r>
       <r>  -2.3173  1.0000</r>
       <r>  -2.3173  1.0000</r>
       <r>  -2.3173  1.0000</r>
       <r>  -2.3159  1.0000</r>
       <r>  -2.3155  1.0000</r>
       <r>  -2.3153  1.0000</r>
       <r>  -2.3153  1.0000</r>
       <r>  -2.3153  1.0000</r>
       <r>  -2.3151  1.0000</r>
       <r>  -2.3151  1.0000</r>
       <r>  -2.3151  1.0000</r>
       <r>  -2.3149  1.0000</r>
       <r>  -2.3149  1.0000</r>
       <r>  -2.3149  1.0000</r>
       <r>  -2.3148  1.0000</r>
       <r>  -2.3148  1.0000</r>
       <r>  -2.3148  1.0000</r>
       <r>  -2.3146  1.0000</r>
       <r>  -2.3142  1.0000</r>
       <r>  -2.3128  1.0000</r>
       <r>  -2.3128  1.0000</r>
       <r>  -2.3128  1.0000</r>
       <r>  -2.3122  1.0000</r>
       <r>  -1.7280  1.0000</r>
       <r>  -1.7242  1.0000</r>
       <r>  -1.7241  1.0000</r>
       <r>  -1.7239  1.0000</r>
       <r>  -1.7239  1.0000</r>
       <r>  -1.7233  1.0000</r>
       <r>  -1.7230  1.0000</r>
       <r>  -1.7230  1.0000</r>
       <r>  -1.7228  1.0000</r>
       <r>  -1.7227  1.0000</r>
       <r>  -1.7227  1.0000</r>
       <r>  -1.7227  1.0000</r>
       <r>  -1.7227  1.0000</r>
       <r>  -1.7227  1.0000</r>
       <r>  -1.7227  1.0000</r>
       <r>  -1.7226  1.0000</r>
       <r>  -1.7224  1.0000</r>
       <r>  -1.7224  1.0000</r>
       <r>  -1.7221  1.0000</r>
       <r>  -1.7215  1.0000</r>
       <r>  -1.7215  1.0000</r>
       <r>  -1.7213  1.0000</r>
       <r>  -1.7212  1.0000</r>
       <r>  -1.7175  1.0000</r>
       <r>  -0.9100  1.0000</r>
       <r>  -0.9100  1.0000</r>
       <r>  -0.9096  1.0000</r>
       <r>  -0.9094  1.0000</r>
       <r>  -0.9089  1.0000</r>
       <r>  -0.9088  1.0000</r>
       <r>  -0.9087  1.0000</r>
       <r>  -0.9087  1.0000</r>
       <r>  -0.9084  1.0000</r>
       <r>  -0.9084  1.0000</r>
       <r>  -0.9083  1.0000</r>
       <r>  -0.9083  1.0000</r>
       <r>  -0.9077  1.0000</r>
       <r>  -0.9075  1.0000</r>
       <r>  -0.9072  1.0000</r>
       <r>  -0.9072  1.0000</r>
       <r>  -0.8780  1.0000</r>
       <r>  -0.8777  1.0000</r>
       <r>  -0.8764  1.0000</r>
       <r>  -0.8764  1.0000</r>
       <r>  -0.8763  1.0000</r>
       <r>  -0.8763  1.0000</r>
       <r>  -0.8750  1.0000</r>
       <r>  -0.8746  1.0000</r>
       <r>  -0.6195  1.0000</r>
       <r>  -0.6195  1.0000</r>
       <r>  -0.6182  1.0000</r>
       <r>  -0.6177  1.0000</r>
       <r>  -0.6165  1.0000</r>
       <r>  -0.6161  1.0000</r>
       <r>  -0.6161  1.0000</r>
       <r>  -0.6161  1.0000</r>
       <r>  -0.6161  1.0000</r>
       <r>  -0.6161  1.0000</r>
       <r>  -0.6160  1.0000</r>
       <r>  -0.6160  1.0000</r>
       <r>  -0.6159  1.0000</r>
       <r>  -0.6159  1.0000</r>
       <r>  -0.6158  1.0000</r>
       <r>  -0.6158  1.0000</r>
       <r>  -0.6158  1.0000</r>
       <r>  -0.6158  1.0000</r>
       <r>  -0.6158  1.0000</r>
       <r>  -0.6155  1.0000</r>
       <r>  -0.6142  1.0000</r>
       <r>  -0.6137  1.0000</r>
       <r>  -0.6124  1.0000</r>
       <r>  -0.6124  1.0000</r>
       <r>  -0.2369  1.0000</r>
       <r>  -0.2356  1.0000</r>
       <r>  -0.2356  1.0000</r>
       <r>  -0.2335  1.0000</r>
       <r>  -0.2334  1.0000</r>
       <r>  -0.2333  1.0000</r>
       <r>  -0.2333  1.0000</r>
       <r>  -0.2331  1.0000</r>
       <r>  -0.2329  1.0000</r>
       <r>  -0.2329  1.0000</r>
       <r>  -0.2329  1.0000</r>
       <r>  -0.2329  1.0000</r>
       <r>  -0.2328  1.0000</r>
       <r>  -0.2328  1.0000</r>
       <r>  -0.2328  1.0000</r>
       <r>  -0.2328  1.0000</r>
       <r>  -0.2326  1.0000</r>
       <r>  -0.2324  1.0000</r>
       <r>  -0.2324  1.0000</r>
       <r>  -0.2323  1.0000</r>
       <r>  -0.2321  1.0000</r>
       <r>  -0.2301  1.0000</r>
       <r>  -0.2301  1.0000</r>
       <r>  -0.2288  1.0000</r>
       <r>   0.1105  1.0000</r>
       <r>   0.1118  1.0000</r>
       <r>   0.1119  1.0000</r>
       <r>   0.1119  1.0000</r>
       <r>   0.1129  1.0000</r>
       <r>   0.1129  1.0000</r>
       <r>   0.1131  1.0000</r>
       <r>   0.1132  1.0000</r>
       <r>   0.1133  1.0000</r>
       <r>   0.1134  1.0000</r>
       <r>   0.1136  1.0000</r>
       <r>   0.1136  1.0000</r>
       <r>   0.1146  1.0000</r>
       <r>   0.1146  1.0000</r>
       <r>   0.1146  1.0000</r>
       <r>   0.1160  1.0000</r>
       <r>   0.8859  1.0000</r>
       <r>   0.8859  1.0000</r>
       <r>   0.8862  1.0000</r>
       <r>   0.8864  1.0000</r>
       <r>   0.8864  1.0000</r>
       <r>   0.8864  1.0000</r>
       <r>   0.8864  1.0000</r>
       <r>   0.8865  1.0000</r>
       <r>   0.8865  1.0000</r>
       <r>   0.8866  1.0000</r>
       <r>   0.8866  1.0000</r>
       <r>   0.8867  1.0000</r>
       <r>   0.8868  1.0000</r>
       <r>   0.8869  1.0000</r>
       <r>   0.8869  1.0000</r>
       <r>   0.8870  1.0000</r>
       <r>   0.8870  1.0000</r>
       <r>   0.8871  1.0000</r>
       <r>   0.8871  1.0000</r>
       <r>   0.8871  1.0000</r>
       <r>   0.8871  1.0000</r>
       <r>   0.8873  1.0000</r>
       <r>   0.8876  1.0000</r>
       <r>   0.8876  1.0000</r>
       <r>   4.8863  0.0000</r>
       <r>   4.8882  0.0000</r>
       <r>   4.8882  0.0000</r>
       <r>   4.8906  0.0000</r>
       <r>   4.8911  0.0000</r>
       <r>   4.8912  0.0000</r>
       <r>   4.8912  0.0000</r>
       <r>   4.8913  0.0000</r>
       <r>   4.8914  0.0000</r>
       <r>   4.8914  0.0000</r>
       <r>   4.8914  0.0000</r>
       <r>   4.8914  0.0000</r>
       <r>   4.8917  0.0000</r>
       <r>   4.8917  0.0000</r>
       <r>   4.8917  0.0000</r>
       <r>   4.8917  0.0000</r>
       <r>   4.8918  0.0000</r>
       <r>   4.8919  0.0000</r>
       <r>   4.8919  0.0000</r>
       <r>   4.8919  0.0000</r>
       <r>   4.8924  0.0000</r>
       <r>   4.8949  0.0000</r>
       <r>   4.8949  0.0000</r>
       <r>   4.8968  0.0000</r>
       <r>  10.1736  0.0000</r>
       <r>  10.1738  0.0000</r>
       <r>  10.1748  0.0000</r>
       <r>  10.1776  0.0000</r>
       <r>  10.1779  0.0000</r>
       <r>  10.1785  0.0000</r>
       <r>  10.1786  0.0000</r>
       <r>  10.1789  0.0000</r>
       <r>  10.1789  0.0000</r>
       <r>  10.1789  0.0000</r>
       <r>  10.1790  0.0000</r>
       <r>  10.1791  0.0000</r>
       <r>  10.1792  0.0000</r>
       <r>  10.1792  0.0000</r>
       <r>  10.1795  0.0000</r>
       <r>  10.1797  0.0000</r>
       <r>  10.1801  0.0000</r>
       <r>  10.1811  0.0000</r>
       <r>  10.1825  0.0000</r>
       <r>  10.1832  0.0000</r>
      </set>
     </set>
    </set>
   </array>
  </eigenvalues>
 </calculation>
 <structure name="finalpos" >
  <crystal>
   <varray name="basis" >
    <v>       8.07665608      0.00000000      0.00000000</v>
    <v>       0.00000000      8.07665608      0.00000000</v>
    <v>       0.00000000      0.00000000      8.07665608</v>
   </varray>
   <i name="volume">    526.85944480</i>
   <varray name="rec_basis" >
    <v>       0.12381362      0.00000000      0.00000000</v>
    <v>       0.00000000      0.12381362      0.00000000</v>
    <v>       0.00000000      0.00000000      0.12381362</v>
   </varray>
  </crystal>
  <varray name="positions" >
   <v>       0.00123814      0.00000000      0.00000000</v>
   <v>       0.50000000      0.00000000      0.00000000</v>
   <v>       0.00000000      0.50000000      0.00000000</v>
   <v>       0.50000000      0.50000000      0.00000000</v>
   <v>       0.00000000      0.00000000      0.50000000</v>
   <v>       0.50000000      0.00000000      0.50000000</v>
   <v>       0.00000000      0.50000000      0.50000000</v>
   <v>       0.50000000      0.50000000      0.50000000</v>
   <v>       0.25000000      0.25000000      0.00000000</v>
   <v>       0.75000000      0.25000000      0.00000000</v>
   <v>       0.25000000      0.75000000      0.00000000</v>
   <v>       0.75000000      0.75000000      0.00000000</v>
   <v>       0.25000000      0.25000000      0.50000000</v>
   <v>       0.75000000      0.25000000      0.50000000</v>
   <v>       0.25000000      0.75000000      0.50000000</v>
   <v>       0.75000000      0.75000000      0.50000000</v>
   <v>       0.25000000      0.00000000      0.25000000</v>
   <v>       0.75000000      0.00000000      0.25000000</v>
   <v>       0.25000000      0.50000000      0.25000000</v>
   <v>       0.75000000      0.50000000      0.25000000</v>
   <v>       0.25000000      0.00000000      0.75000000</v>
   <v>       0.75000000      0.00000000      0.75000000</v>
   <v>       0.25000000      0.50000000      0.75000000</v>
   <v>       0.75000000      0.50000000      0.75000000</v>
   <v>       0.00000000      0.25000000      0.25000000</v>
   <v>       0.50000000      0.25000000      0.25000000</v>
   <v>       0.00000000      0.75000000      0.25000000</v>
   <v>       0.50000000      0.75000000      0.25000000</v>
   <v>       0.00000000      0.25000000      0.75000000</v>
   <v>       0.50000000      0.25000000      0.75000000</v>
   <v>       0.00000000      0.75000000      0.75000000</v>
   <v>       0.50000000      0.75000000      0.75000000</v>
  </varray>
 </structure>
</modeling>
