   2   2   0   0
  0.1780783E+02  0.2940234E-09  0.2940234E-09  0.4741849E-09  0.5000000E-15
  1.000000000000000E-004
  CAR 
 unknown system                          
     10.83844811    -29.54228878  301      5.64003993      1.00000000
    -29.542  0.0000E+00  0.0000E+00
    -29.408  0.0000E+00  0.0000E+00
    -29.273  0.0000E+00  0.0000E+00
    -29.138  0.0000E+00  0.0000E+00
    -29.004  0.0000E+00  0.0000E+00
    -28.869  0.0000E+00  0.0000E+00
    -28.735  0.0000E+00  0.0000E+00
    -28.600  0.0000E+00  0.0000E+00
    -28.465  0.0000E+00  0.0000E+00
    -28.331  0.0000E+00  0.0000E+00
    -28.196  0.0000E+00  0.0000E+00
    -28.062  0.0000E+00  0.0000E+00
    -27.927  0.0000E+00  0.0000E+00
    -27.792  0.0000E+00  0.0000E+00
    -27.658  0.1435E+00  0.1932E-01
    -27.523  0.1292E+02  0.1883E+01
    -27.389  0.4164E+01  0.3617E+01
    -27.254  0.9695E+01  0.5801E+01
    -27.119  0.2502E+02  0.1049E+02
    -26.985  0.3328E+01  0.1200E+02
    -26.850  0.0000E+00  0.1200E+02
    -26.716  0.0000E+00  0.1200E+02
    -26.581  0.0000E+00  0.1200E+02
    -26.446  0.0000E+00  0.1200E+02
    -26.312  0.0000E+00  0.1200E+02
    -26.177  0.0000E+00  0.1200E+02
    -26.043  0.0000E+00  0.1200E+02
    -25.908  0.0000E+00  0.1200E+02
    -25.773  0.0000E+00  0.1200E+02
    -25.639  0.0000E+00  0.1200E+02
    -25.504  0.0000E+00  0.1200E+02
    -25.370  0.0000E+00  0.1200E+02
    -25.235  0.0000E+00  0.1200E+02
    -25.100  0.0000E+00  0.1200E+02
    -24.966  0.0000E+00  0.1200E+02
    -24.831  0.0000E+00  0.1200E+02
    -24.697  0.0000E+00  0.1200E+02
    -24.562  0.0000E+00  0.1200E+02
    -24.427  0.0000E+00  0.1200E+02
    -24.293  0.0000E+00  0.1200E+02
    -24.158  0.0000E+00  0.1200E+02
    -24.024  0.0000E+00  0.1200E+02
    -23.889  0.0000E+00  0.1200E+02
    -23.754  0.0000E+00  0.1200E+02
    -23.620  0.0000E+00  0.1200E+02
    -23.485  0.0000E+00  0.1200E+02
    -23.351  0.0000E+00  0.1200E+02
    -23.216  0.0000E+00  0.1200E+02
    -23.081  0.0000E+00  0.1200E+02
    -22.947  0.0000E+00  0.1200E+02
    -22.812  0.0000E+00  0.1200E+02
    -22.678  0.0000E+00  0.1200E+02
    -22.543  0.0000E+00  0.1200E+02
    -22.408  0.0000E+00  0.1200E+02
    -22.274  0.0000E+00  0.1200E+02
    -22.139  0.0000E+00  0.1200E+02
    -22.005  0.0000E+00  0.1200E+02
    -21.870  0.0000E+00  0.1200E+02
    -21.735  0.0000E+00  0.1200E+02
    -21.601  0.0000E+00  0.1200E+02
    -21.466  0.0000E+00  0.1200E+02
    -21.332  0.0000E+00  0.1200E+02
    -21.197  0.0000E+00  0.1200E+02
    -21.062  0.0000E+00  0.1200E+02
    -20.928  0.0000E+00  0.1200E+02
    -20.793  0.0000E+00  0.1200E+02
    -20.659  0.0000E+00  0.1200E+02
    -20.524  0.0000E+00  0.1200E+02
    -20.389  0.0000E+00  0.1200E+02
    -20.255  0.0000E+00  0.1200E+02
    -20.120  0.0000E+00  0.1200E+02
    -19.986  0.0000E+00  0.1200E+02
    -19.851  0.0000E+00  0.1200E+02
    -19.716  0.0000E+00  0.1200E+02
    -19.582  0.0000E+00  0.1200E+02
    -19.447  0.0000E+00  0.1200E+02
    -19.313  0.0000E+00  0.1200E+02
    -19.178  0.0000E+00  0.1200E+02
    -19.043  0.0000E+00  0.1200E+02
    -18.909  0.0000E+00  0.1200E+02
    -18.774  0.0000E+00  0.1200E+02
    -18.639  0.0000E+00  0.1200E+02
    -18.505  0.0000E+00  0.1200E+02
    -18.370  0.0000E+00  0.1200E+02
    -18.236  0.0000E+00  0.1200E+02
    -18.101  0.0000E+00  0.1200E+02
    -17.966  0.0000E+00  0.1200E+02
    -17.832  0.0000E+00  0.1200E+02
    -17.697  0.0000E+00  0.1200E+02
    -17.563  0.0000E+00  0.1200E+02
    -17.428  0.0000E+00  0.1200E+02
    -17.293  0.0000E+00  0.1200E+02
    -17.159  0.0000E+00  0.1200E+02
    -17.024  0.0000E+00  0.1200E+02
    -16.890  0.0000E+00  0.1200E+02
    -16.755  0.0000E+00  0.1200E+02
    -16.620  0.0000E+00  0.1200E+02
    -16.486  0.0000E+00  0.1200E+02
    -16.351  0.0000E+00  0.1200E+02
    -16.217  0.0000E+00  0.1200E+02
    -16.082  0.0000E+00  0.1200E+02
    -15.947  0.0000E+00  0.1200E+02
    -15.813  0.0000E+00  0.1200E+02
    -15.678  0.0000E+00  0.1200E+02
    -15.544  0.0000E+00  0.1200E+02
    -15.409  0.0000E+00  0.1200E+02
    -15.274  0.0000E+00  0.1200E+02
    -15.140  0.0000E+00  0.1200E+02
    -15.005  0.0000E+00  0.1200E+02
    -14.871  0.0000E+00  0.1200E+02
    -14.736  0.0000E+00  0.1200E+02
    -14.601  0.0000E+00  0.1200E+02
    -14.467  0.0000E+00  0.1200E+02
    -14.332  0.0000E+00  0.1200E+02
    -14.198  0.0000E+00  0.1200E+02
    -14.063  0.0000E+00  0.1200E+02
    -13.928  0.0000E+00  0.1200E+02
    -13.794  0.0000E+00  0.1200E+02
    -13.659  0.0000E+00  0.1200E+02
    -13.525  0.0000E+00  0.1200E+02
    -13.390  0.0000E+00  0.1200E+02
    -13.255  0.0000E+00  0.1200E+02
    -13.121  0.0000E+00  0.1200E+02
    -12.986  0.0000E+00  0.1200E+02
    -12.852  0.0000E+00  0.1200E+02
    -12.717  0.0000E+00  0.1200E+02
    -12.582  0.0000E+00  0.1200E+02
    -12.448  0.0000E+00  0.1200E+02
    -12.313  0.0000E+00  0.1200E+02
    -12.179  0.0000E+00  0.1200E+02
    -12.044  0.0000E+00  0.1200E+02
    -11.909  0.0000E+00  0.1200E+02
    -11.775  0.0000E+00  0.1200E+02
    -11.640  0.0000E+00  0.1200E+02
    -11.506  0.0000E+00  0.1200E+02
    -11.371  0.0000E+00  0.1200E+02
    -11.236  0.0000E+00  0.1200E+02
    -11.102  0.0000E+00  0.1200E+02
    -10.967  0.0000E+00  0.1200E+02
    -10.833  0.0000E+00  0.1200E+02
    -10.698  0.0000E+00  0.1200E+02
    -10.563  0.0000E+00  0.1200E+02
    -10.429  0.0000E+00  0.1200E+02
    -10.294  0.0000E+00  0.1200E+02
    -10.160  0.0000E+00  0.1200E+02
    -10.025  0.0000E+00  0.1200E+02
     -9.890  0.0000E+00  0.1200E+02
     -9.756  0.0000E+00  0.1200E+02
     -9.621  0.0000E+00  0.1200E+02
     -9.487  0.0000E+00  0.1200E+02
     -9.352  0.0000E+00  0.1200E+02
     -9.217  0.0000E+00  0.1200E+02
     -9.083  0.0000E+00  0.1200E+02
     -8.948  0.0000E+00  0.1200E+02
     -8.814  0.0000E+00  0.1200E+02
     -8.679  0.0000E+00  0.1200E+02
     -8.544  0.0000E+00  0.1200E+02
     -8.410  0.0000E+00  0.1200E+02
     -8.275  0.0000E+00  0.1200E+02
     -8.140  0.0000E+00  0.1200E+02
     -8.006  0.0000E+00  0.1200E+02
     -7.871  0.0000E+00  0.1200E+02
     -7.737  0.0000E+00  0.1200E+02
     -7.602  0.0000E+00  0.1200E+02
     -7.467  0.0000E+00  0.1200E+02
     -7.333  0.0000E+00  0.1200E+02
     -7.198  0.0000E+00  0.1200E+02
     -7.064  0.0000E+00  0.1200E+02
     -6.929  0.0000E+00  0.1200E+02
     -6.794  0.0000E+00  0.1200E+02
     -6.660  0.0000E+00  0.1200E+02
     -6.525  0.0000E+00  0.1200E+02
     -6.391  0.0000E+00  0.1200E+02
     -6.256  0.0000E+00  0.1200E+02
     -6.121  0.0000E+00  0.1200E+02
     -5.987  0.0000E+00  0.1200E+02
     -5.852  0.0000E+00  0.1200E+02
     -5.718  0.0000E+00  0.1200E+02
     -5.583  0.0000E+00  0.1200E+02
     -5.448  0.0000E+00  0.1200E+02
     -5.314  0.0000E+00  0.1200E+02
     -5.179  0.0000E+00  0.1200E+02
     -5.045  0.0000E+00  0.1200E+02
     -4.910  0.0000E+00  0.1200E+02
     -4.775  0.0000E+00  0.1200E+02
     -4.641  0.0000E+00  0.1200E+02
     -4.506  0.0000E+00  0.1200E+02
     -4.372  0.0000E+00  0.1200E+02
     -4.237  0.0000E+00  0.1200E+02
     -4.102  0.0000E+00  0.1200E+02
     -3.968  0.0000E+00  0.1200E+02
     -3.833  0.0000E+00  0.1200E+02
     -3.699  0.0000E+00  0.1200E+02
     -3.564  0.0000E+00  0.1200E+02
     -3.429  0.0000E+00  0.1200E+02
     -3.295  0.0000E+00  0.1200E+02
     -3.160  0.0000E+00  0.1200E+02
     -3.026  0.0000E+00  0.1200E+02
     -2.891  0.0000E+00  0.1200E+02
     -2.756  0.0000E+00  0.1200E+02
     -2.622  0.0000E+00  0.1200E+02
     -2.487  0.0000E+00  0.1200E+02
     -2.353  0.0000E+00  0.1200E+02
     -2.218  0.0000E+00  0.1200E+02
     -2.083  0.0000E+00  0.1200E+02
     -1.949  0.0000E+00  0.1200E+02
     -1.814  0.0000E+00  0.1200E+02
     -1.680  0.0000E+00  0.1200E+02
     -1.545  0.0000E+00  0.1200E+02
     -1.410  0.0000E+00  0.1200E+02
     -1.276  0.0000E+00  0.1200E+02
     -1.141  0.0000E+00  0.1200E+02
     -1.007  0.0000E+00  0.1200E+02
     -0.872  0.0000E+00  0.1200E+02
     -0.737  0.0000E+00  0.1200E+02
     -0.603  0.0000E+00  0.1200E+02
     -0.468  0.0000E+00  0.1200E+02
     -0.334  0.1189E+00  0.1202E+02
     -0.199  0.0000E+00  0.1202E+02
     -0.064  0.2056E+00  0.1204E+02
      0.070  0.0000E+00  0.1205E+02
      0.205  0.0000E+00  0.1205E+02
      0.339  0.0000E+00  0.1205E+02
      0.474  0.0000E+00  0.1205E+02
      0.609  0.4872E-12  0.1205E+02
      0.743  0.2377E+00  0.1214E+02
      0.878  0.2377E+00  0.1218E+02
      1.012  0.1426E+01  0.1237E+02
      1.147  0.0000E+00  0.1237E+02
      1.282  0.0000E+00  0.1237E+02
      1.416  0.0000E+00  0.1237E+02
      1.551  0.0000E+00  0.1237E+02
      1.685  0.1056E-03  0.1237E+02
      1.820  0.0000E+00  0.1256E+02
      1.955  0.3922E-06  0.1256E+02
      2.089  0.0000E+00  0.1259E+02
      2.224  0.0000E+00  0.1259E+02
      2.358  0.6297E-06  0.1259E+02
      2.493  0.4755E+00  0.1269E+02
      2.628  0.1426E+01  0.1288E+02
      2.762  0.6249E-02  0.1288E+02
      2.897  0.2376E+01  0.1339E+02
      3.032  0.2323E+01  0.1370E+02
      3.166  0.1189E+00  0.1379E+02
      3.301  0.0000E+00  0.1379E+02
      3.435  0.1426E+01  0.1398E+02
      3.570  0.2503E-11  0.1398E+02
      3.705  0.1515E+01  0.1438E+02
      3.839  0.2137E+01  0.1504E+02
      3.974  0.8330E+00  0.1525E+02
      4.108  0.1427E+01  0.1562E+02
      4.243  0.1426E+01  0.1610E+02
      4.378  0.2136E+01  0.1638E+02
      4.512  0.4778E+00  0.1645E+02
      4.647  0.9770E+00  0.1668E+02
      4.781  0.2765E+01  0.1743E+02
      4.916  0.3735E+01  0.1794E+02
      5.051  0.2856E+01  0.1840E+02
      5.185  0.2140E+01  0.1917E+02
      5.320  0.1426E+01  0.1936E+02
      5.454  0.1173E+01  0.1952E+02
      5.589  0.7929E+00  0.1966E+02
      5.724  0.4755E+00  0.2006E+02
      5.858  0.1651E+01  0.2035E+02
      5.993  0.3686E+01  0.2110E+02
      6.127  0.2144E+01  0.2166E+02
      6.262  0.3305E+00  0.2180E+02
      6.397  0.3786E+01  0.2254E+02
      6.531  0.3243E+01  0.2341E+02
      6.666  0.2898E+01  0.2397E+02
      6.800  0.1674E+01  0.2451E+02
      6.935  0.3529E+01  0.2534E+02
      7.070  0.2526E+01  0.2584E+02
      7.204  0.2218E+00  0.2611E+02
      7.339  0.2461E+01  0.2654E+02
      7.473  0.1511E-07  0.2669E+02
      7.608  0.5671E+00  0.2696E+02
      7.743  0.3044E+01  0.2774E+02
      7.877  0.1426E+01  0.2810E+02
      8.012  0.0000E+00  0.2810E+02
      8.146  0.1424E+01  0.2829E+02
      8.281  0.2434E+00  0.2835E+02
      8.416  0.6520E-03  0.2854E+02
      8.550  0.2237E+01  0.2904E+02
      8.685  0.3062E+01  0.2976E+02
      8.819  0.3273E+01  0.3042E+02
      8.954  0.4988E+01  0.3142E+02
      9.089  0.0000E+00  0.3200E+02
      9.223  0.0000E+00  0.3200E+02
      9.358  0.0000E+00  0.3200E+02
      9.492  0.0000E+00  0.3200E+02
      9.627  0.0000E+00  0.3200E+02
      9.762  0.0000E+00  0.3200E+02
      9.896  0.0000E+00  0.3200E+02
     10.031  0.0000E+00  0.3200E+02
     10.165  0.0000E+00  0.3200E+02
     10.300  0.0000E+00  0.3200E+02
     10.435  0.0000E+00  0.3200E+02
     10.569  0.0000E+00  0.3200E+02
     10.704  0.0000E+00  0.3200E+02
     10.838  0.0000E+00  0.3200E+02
