    2    2    1    1
  0.1780783E+02  0.2940234E-09  0.2940234E-09  0.4741849E-09  0.5000000E-15
  1.000000000000000E-004
  CAR 
 unknown system                          
   20   27   16
 
  0.0000000E+00  0.0000000E+00  0.0000000E+00  0.8000000E-02
   1      -27.7068
   2      -27.1069
   3      -27.1049
   4      -27.0761
   5      -27.0213
   6      -27.0190
   7       -0.3914
   8        3.0866
   9        6.2807
  10        6.4452
  11        6.4742
  12        6.5368
  13        6.9149
  14        6.9742
  15        7.3391
  16        7.3893
 
  0.2000000E+00 -0.1387779E-16  0.0000000E+00  0.3200000E-01
   1      -27.6313
   2      -27.2619
   3      -27.1776
   4      -27.1535
   5      -27.1080
   6      -27.0436
   7        0.6584
   8        3.8179
   9        5.1039
  10        5.5404
  11        6.4547
  12        6.8841
  13        6.9181
  14        7.2392
  15        7.2629
  16        7.6061
 
  0.4000000E+00 -0.2775558E-16  0.0000000E+00  0.3200000E-01
   1      -27.5164
   2      -27.4701
   3      -27.4158
   4      -27.2261
   5      -27.1982
   6      -27.0849
   7        2.8582
   8        3.8893
   9        4.0619
  10        5.1093
  11        6.3249
  12        6.3649
  13        6.6231
  14        8.7170
  15        8.8927
  16        8.9289
 
  0.2000000E+00  0.2000000E+00  0.0000000E+00  0.1600000E-01
   1      -27.5090
   2      -27.3934
   3      -27.3811
   4      -27.2198
   5      -27.1733
   6      -27.1351
   7        2.3907
   8        4.3622
   9        4.5070
  10        4.7282
  11        6.0744
  12        6.4592
  13        6.6909
  14        7.6902
  15        8.5058
  16        8.9363
 
  0.4000000E+00  0.2000000E+00  0.0000000E+00  0.3200000E-01
   1      -27.5109
   2      -27.4093
   3      -27.3846
   4      -27.3232
   5      -27.2611
   6      -27.1950
   7        3.9556
   8        4.0602
   9        4.1467
  10        4.7437
  11        5.9886
  12        6.0960
  13        6.9404
  14        8.6220
  15        8.9050
  16        8.9058
 
 -0.4000000E+00  0.2000000E+00  0.0000000E+00  0.3200000E-01
   1      -27.5092
   2      -27.4040
   3      -27.3904
   4      -27.2170
   5      -27.1712
   6      -27.1308
   7        2.4132
   8        4.3413
   9        4.5099
  10        4.7315
  11        6.0624
  12        6.4517
  13        6.7056
  14        7.7066
  15        8.5104
  16        8.9499
 
 -0.2000000E+00  0.2000000E+00  0.0000000E+00  0.1600000E-01
   1      -27.6312
   2      -27.2638
   3      -27.1809
   4      -27.1566
   5      -27.1070
   6      -27.0437
   7        0.6680
   8        3.8226
   9        5.0881
  10        5.5760
  11        6.4952
  12        6.8752
  13        6.9305
  14        7.1936
  15        7.2578
  16        7.5767
 
  0.4000000E+00  0.4000000E+00  0.0000000E+00  0.1600000E-01
   1      -27.5188
   2      -27.4146
   3      -27.3871
   4      -27.3243
   5      -27.2567
   6      -27.1939
   7        3.9502
   8        4.0431
   9        4.1308
  10        4.7790
  11        5.9484
  12        6.1434
  13        6.9743
  14        8.6250
  15        8.9060
  16        8.9219
 
 -0.4000000E+00  0.4000000E+00  0.0000000E+00  0.1600000E-01
   1      -27.5241
   2      -27.4712
   3      -27.4210
   4      -27.2317
   5      -27.1940
   6      -27.0878
   7        2.8702
   8        3.8830
   9        4.0373
  10        5.1412
  11        6.3109
  12        6.3855
  13        6.6759
  14        8.7206
  15        8.8910
  16        8.9303
 
  0.0000000E+00  0.0000000E+00  0.2000000E+00  0.1600000E-01
   1      -27.6489
   2      -27.1388
   3      -27.0986
   4      -27.0970
   5      -27.0294
   6      -27.0274
   7       -0.0721
   8        2.8598
   9        5.8742
  10        6.3088
  11        6.3529
  12        6.4345
  13        6.7693
  14        6.8271
  15        7.6276
  16        7.6797
 
  0.2000000E+00 -0.1387779E-16  0.2000000E+00  0.6400000E-01
   1      -27.5942
   2      -27.2532
   3      -27.2264
   4      -27.1432
   5      -27.1073
   6      -27.0542
   7        0.9364
   8        3.6404
   9        4.8989
  10        5.6201
  11        6.2647
  12        6.6507
  13        6.8253
  14        7.3524
  15        7.6505
  16        7.6607
 
  0.4000000E+00 -0.2775558E-16  0.2000000E+00  0.6400000E-01
   1      -27.5766
   2      -27.4717
   3      -27.3677
   4      -27.2130
   5      -27.1831
   6      -27.0985
   7        2.8644
   8        3.7602
   9        4.3469
  10        5.0130
  11        6.4301
  12        6.5480
  13        6.6867
  14        8.5665
  15        8.7551
  16        8.8236
 
  0.2000000E+00  0.2000000E+00  0.2000000E+00  0.3200000E-01
   1      -27.5322
   2      -27.4173
   3      -27.3238
   4      -27.2507
   5      -27.1462
   6      -27.1412
   7        2.5552
   8        4.1518
   9        4.6613
  10        4.8404
  11        6.0195
  12        6.3854
  13        6.6020
  14        7.7457
  15        8.4998
  16        8.6841
 
  0.4000000E+00  0.2000000E+00  0.2000000E+00  0.6400000E-01
   1      -27.5449
   2      -27.4692
   3      -27.3773
   4      -27.2629
   5      -27.2475
   6      -27.1806
   7        3.7181
   8        4.1903
   9        4.5705
  10        4.6623
  11        5.8633
  12        6.0944
  13        7.0053
  14        8.4401
  15        8.6364
  16        8.9973
 
 -0.4000000E+00  0.2000000E+00  0.2000000E+00  0.6400000E-01
   1      -27.5338
   2      -27.4260
   3      -27.3320
   4      -27.2480
   5      -27.1429
   6      -27.1397
   7        2.5753
   8        4.1367
   9        4.6658
  10        4.8428
  11        6.0201
  12        6.4041
  13        6.5907
  14        7.7554
  15        8.4959
  16        8.6908
 
 -0.2000000E+00  0.2000000E+00  0.2000000E+00  0.3200000E-01
   1      -27.5938
   2      -27.2553
   3      -27.2273
   4      -27.1459
   5      -27.1089
   6      -27.0546
   7        0.9459
   8        3.6441
   9        4.8950
  10        5.6548
  11        6.3008
  12        6.6754
  13        6.7844
  14        7.3116
  15        7.6177
  16        7.6759
 
  0.4000000E+00  0.4000000E+00  0.2000000E+00  0.3200000E-01
   1      -27.5504
   2      -27.4717
   3      -27.3804
   4      -27.2636
   5      -27.2495
   6      -27.1779
   7        3.7125
   8        4.1871
   9        4.5589
  10        4.6764
  11        5.8355
  12        6.1470
  13        7.0265
  14        8.4378
  15        8.6374
  16        9.0030
 
 -0.4000000E+00  0.4000000E+00  0.2000000E+00  0.3200000E-01
   1      -27.5803
   2      -27.4749
   3      -27.3720
   4      -27.2181
   5      -27.1820
   6      -27.1017
   7        2.8764
   8        3.7614
   9        4.3345
  10        5.0257
  11        6.4830
  12        6.5007
  13        6.7455
  14        8.5566
  15        8.7575
  16        8.8225
 
  0.0000000E+00  0.0000000E+00  0.4000000E+00  0.1600000E-01
   1      -27.4952
   2      -27.3004
   3      -27.0767
   4      -27.0761
   5      -27.0503
   6      -27.0495
   7        0.8117
   8        1.9876
   9        5.6245
  10        5.9197
  11        6.3269
  12        6.3961
  13        6.4964
  14        6.5566
  15        8.1604
  16        8.2012
 
  0.2000000E+00 -0.1387779E-16  0.4000000E+00  0.6400000E-01
   1      -27.4942
   2      -27.3624
   3      -27.1909
   4      -27.1377
   5      -27.1157
   6      -27.0818
   7        1.7116
   8        2.7799
   9        5.0743
  10        5.5983
  11        5.9768
  12        6.3437
  13        6.8647
  14        7.0932
  15        8.1297
  16        8.2988
 
  0.4000000E+00 -0.2775558E-16  0.4000000E+00  0.6400000E-01
   1      -27.5956
   2      -27.5514
   3      -27.2587
   4      -27.1924
   5      -27.1769
   6      -27.1340
   7        3.0229
   8        3.3983
   9        4.7555
  10        5.0721
  11        6.4412
  12        6.8001
  13        7.0757
  14        7.8292
  15        8.8523
  16        8.8772
 
  0.2000000E+00  0.2000000E+00  0.4000000E+00  0.3200000E-01
   1      -27.5318
   2      -27.4820
   3      -27.2486
   4      -27.2474
   5      -27.1619
   6      -27.1391
   7        3.0086
   8        3.6206
   9        5.0151
  10        5.1177
  11        5.7764
  12        5.9185
  13        6.9415
  14        7.5193
  15        8.6081
  16        8.9591
 
  0.4000000E+00  0.2000000E+00  0.4000000E+00  0.6400000E-01
   1      -27.5737
   2      -27.5460
   3      -27.3370
   4      -27.2842
   5      -27.1834
   6      -27.1549
   7        3.7318
   8        3.9818
   9        4.9164
  10        5.2855
  11        5.4493
  12        5.8981
  13        7.2595
  14        7.7122
  15        8.7496
  16        8.9755
 
 -0.4000000E+00  0.2000000E+00  0.4000000E+00  0.6400000E-01
   1      -27.5344
   2      -27.4867
   3      -27.2558
   4      -27.2484
   5      -27.1579
   6      -27.1388
   7        3.0205
   8        3.6188
   9        5.0212
  10        5.1204
  11        5.7953
  12        5.9437
  13        6.9228
  14        7.5125
  15        8.5961
  16        8.9714
 
 -0.2000000E+00  0.2000000E+00  0.4000000E+00  0.3200000E-01
   1      -27.4932
   2      -27.3617
   3      -27.1937
   4      -27.1407
   5      -27.1178
   6      -27.0829
   7        1.7202
   8        2.7857
   9        5.0844
  10        5.6225
  11        6.0040
  12        6.3732
  13        6.8281
  14        7.0592
  15        8.0975
  16        8.3094
 
  0.4000000E+00  0.4000000E+00  0.4000000E+00  0.3200000E-01
   1      -27.5768
   2      -27.5478
   3      -27.3401
   4      -27.2866
   5      -27.1848
   6      -27.1544
   7        3.7337
   8        3.9917
   9        4.9060
  10        5.2807
  11        5.4432
  12        5.9332
  13        7.2701
  14        7.7136
  15        8.7441
  16        8.9687
 
 -0.4000000E+00  0.4000000E+00  0.4000000E+00  0.3200000E-01
   1      -27.5976
   2      -27.5530
   3      -27.2628
   4      -27.1938
   5      -27.1824
   6      -27.1379
   7        3.0368
   8        3.4124
   9        4.7547
  10        5.0700
  11        6.4823
  12        6.8538
  13        7.0364
  14        7.8033
  15        8.8542
  16        8.8791
