       N       E                     dE             d eps       ncg     rms          rms(c)
DAV:   1     0.153561663433E+03    0.15356E+03   -0.10962E+04   864   0.134E+03
DAV:   2    -0.136239830480E+02   -0.16719E+03   -0.16545E+03   872   0.395E+02
DAV:   3    -0.179896042130E+02   -0.43656E+01   -0.43108E+01  1216   0.667E+01
DAV:   4    -0.180659460641E+02   -0.76342E-01   -0.74404E-01   920   0.898E+00
DAV:   5    -0.180673827251E+02   -0.14367E-02   -0.14366E-02  1088   0.134E+00    0.854E+00
DAV:   6    -0.158812233341E+02    0.21862E+01   -0.70937E+00   992   0.283E+01    0.194E+00
DAV:   7    -0.157858933119E+02    0.95330E-01   -0.56308E-01  1104   0.726E+00    0.783E-01
DAV:   8    -0.157752492899E+02    0.10644E-01   -0.27140E-02   896   0.196E+00    0.160E-01
DAV:   9    -0.157743168881E+02    0.93240E-03   -0.59547E-03  1000   0.796E-01    0.283E-02
DAV:  10    -0.157743106597E+02    0.62283E-05   -0.13186E-04  1112   0.116E-01    0.114E-02
DAV:  11    -0.157743084064E+02    0.22534E-05   -0.80817E-06  1008   0.308E-02    0.444E-03
DAV:  12    -0.157743054566E+02    0.29498E-05   -0.18679E-06  1104   0.128E-02    0.893E-04
DAV:  13    -0.157743056139E+02   -0.15735E-06   -0.93066E-08  1000   0.349E-03    0.240E-04
DAV:  14    -0.157743057387E+02   -0.12475E-06   -0.20097E-09   472   0.503E-04    0.357E-05
DAV:  15    -0.157743057725E+02   -0.33835E-07   -0.40234E-10   464   0.218E-04    0.117E-05
DAV:  16    -0.157743057688E+02    0.37649E-08   -0.93178E-11   464   0.123E-04
   1 F= -.15774306E+02 E0= -.15774284E+02  d E =-.436766E-04
