 vasp.4.6.28 25Jul05 complex 
 executed on             LinuxIFC date 2016.11.25  11:57:24
 running on    4 nodes
 distr:  one band on    1 nodes,    4 groups


--------------------------------------------------------------------------------------------------------


 INCAR:
 POTCAR:   PAW_PBE Ti_pv 07Sep2000                
 POTCAR:   PAW_PBE Ti_pv 07Sep2000                
   VRHFIN =Ti: d3 s1                                                            
   LEXCH  = PE                                                                  
   EATOM  =  1042.3781 eV,   76.6126 Ry                                         
                                                                                
   TITEL  = PAW_PBE Ti_pv 07Sep2000                                             
   LULTRA =        F    use ultrasoft PP ?                                      
   IUNSCR =        1    unscreen: 0-lin 1-nonlin 2-no                           
   RPACOR =    2.200    partial core radius                                     
   POMASS =   47.880; ZVAL   =   10.000    mass and valenz                      
   RCORE  =    2.500    outmost cutoff radius                                   
   RWIGS  =    2.500; RWIGS  =    1.323    wigner-seitz radius (au A)           
   ENMAX  =  222.338; ENMIN  =  166.753 eV                                      
   RCLOC  =    1.701    cutoff for local pot                                    
   LCOR   =        T    correct aug charges                                     
   LPAW   =        T    paw PP                                                  
   EAUG   =  482.848                                                            
   DEXC   =    -.008                                                            
   RMAX   =    3.092    core radius for proj-oper                               
   RAUG   =    1.300    factor for augmentation sphere                          
   RDEP   =    2.538    radius for radial grids                                 
   QCUT   =   -4.042; QGAM   =    8.085    optimization parameters              
                                                                                
   Description                                                                  
     l     E      TYP  RCUT    TYP  RCUT                                        
     1   .000     23  2.300                                                     
     1  -.100     23  2.300                                                     
     2   .000     23  2.500                                                     
     2   .000     23  2.500                                                     
     0   .000     23  2.500                                                     
     0  1.500     23  2.500                                                     
     3   .000      7   .000                                                     
  local pseudopotential read in
  partial core-charges read in
  atomic valenz-charges read in
  non local Contribution for L=           1  read in
    real space projection operators read in
  non local Contribution for L=           1  read in
    real space projection operators read in
  non local Contribution for L=           2  read in
    real space projection operators read in
  non local Contribution for L=           2  read in
    real space projection operators read in
  non local Contribution for L=           0  read in
    real space projection operators read in
  non local Contribution for L=           0  read in
    real space projection operators read in
    PAW grid and wavefunctions read in
 
   number of l-projection  operators is LMAX  =           6
   number of lm-projection operators is LMMAX =          18
 
 PAW_PBE Ti_pv 07Sep2000                :
 energy of atom  1       EATOM=-1042.3781
 kinetic energy error for atom=    0.0024 (will be added to EATOM!!)
 
 EXHCAR: internal setup
 exchange correlation table for  LEXCH =        8
   RHO(1)=    0.500       N(1)  =     2000
   RHO(2)=  100.500       N(2)  =     4000
 
 POSCAR: Ti-hcp                                  
  positions in direct lattice
  No initial velocities read in
 


--------------------------------------------------------------------------------------------------------


 ion  position               nearest neighbor table
   1  0.332  0.668  0.250-   2 2.92   2 2.92   2 2.92   2 2.92   2 2.92   2 2.92
   2  0.668  0.332  0.750-   1 2.92   1 2.92   1 2.92   1 2.92   1 2.92   1 2.92
 
  LATTYP: Found a base centered orthorhombic cell.
 ALAT       =     2.9545207598
 B/A-ratio  =     1.7208744689
 C/A-ratio  =     1.6049470406
  
  Lattice vectors:
  
 A1 = (   2.9402223666,   0.0082551467,   0.0000000000)
 A2 = (  -1.4629619568,   2.5504348700,   0.0000000000)
 A3 = (   0.0000000000,   0.0000000000,   4.7418493500)
 Subroutine PRICEL returns:
 Original cell was already a primitive cell.
 

Analysis of symmetry for initial positions (statically):

 Routine SETGRP: Setting up the symmetry group for a 
 base centered orthorhombic supercell.


 Subroutine GETGRP returns: Found  8 space group operations
 (whereof  4 operations were pure point group operations)
 out of a pool of  8 trial point group operations.


The static configuration has the point symmetry C_2h.
 The point group associated with its full space group is D_2h.

Analysis of symmetry for dynamics (positions and initial velocities):

 Subroutine DYNSYM returns: Found  8 space group operations
 (whereof  4 operations were pure point group operations)
 out of a pool of  8 trial space group operations
 (whereof  4 operations were pure point group operations)
 and found also     1 'primitive' translations


The dynamic configuration has the point symmetry C_2h.
 The point group associated with its full space group is D_2h.
 
 
 KPOINTS: Automatic mesh                          

Automatic generation of k-mesh.
 
 Subroutine IBZKPT returns following result:
 ===========================================
 
 Found     27 irreducible k-points:
 
 Following reciprocal coordinates:
            Coordinates               Weight
  0.000000  0.000000  0.000000      1.000000
  0.200000 -0.000000  0.000000      4.000000
  0.400000 -0.000000  0.000000      4.000000
  0.200000  0.200000  0.000000      2.000000
  0.400000  0.200000  0.000000      4.000000
 -0.400000  0.200000  0.000000      4.000000
 -0.200000  0.200000  0.000000      2.000000
  0.400000  0.400000  0.000000      2.000000
 -0.400000  0.400000  0.000000      2.000000
  0.000000  0.000000  0.200000      2.000000
  0.200000 -0.000000  0.200000      8.000000
  0.400000 -0.000000  0.200000      8.000000
  0.200000  0.200000  0.200000      4.000000
  0.400000  0.200000  0.200000      8.000000
 -0.400000  0.200000  0.200000      8.000000
 -0.200000  0.200000  0.200000      4.000000
  0.400000  0.400000  0.200000      4.000000
 -0.400000  0.400000  0.200000      4.000000
  0.000000  0.000000  0.400000      2.000000
  0.200000 -0.000000  0.400000      8.000000
  0.400000 -0.000000  0.400000      8.000000
  0.200000  0.200000  0.400000      4.000000
  0.400000  0.200000  0.400000      8.000000
 -0.400000  0.200000  0.400000      8.000000
 -0.200000  0.200000  0.400000      4.000000
  0.400000  0.400000  0.400000      4.000000
 -0.400000  0.400000  0.400000      4.000000
 
 Following cartesian coordinates:
            Coordinates               Weight
  0.000000  0.000000  0.000000      1.000000
  0.067913  0.038956  0.000000      4.000000
  0.135825  0.077911  0.000000      4.000000
  0.067693  0.117247  0.000000      2.000000
  0.135606  0.156203  0.000000      4.000000
 -0.136045  0.000381  0.000000      4.000000
 -0.068133  0.039336  0.000000      2.000000
  0.135386  0.234495  0.000000      2.000000
 -0.136265  0.078673  0.000000      2.000000
  0.000000  0.000000  0.042178      2.000000
  0.067913  0.038956  0.042178      8.000000
  0.135825  0.077911  0.042178      8.000000
  0.067693  0.117247  0.042178      4.000000
  0.135606  0.156203  0.042178      8.000000
 -0.136045  0.000381  0.042178      8.000000
 -0.068133  0.039336  0.042178      4.000000
  0.135386  0.234495  0.042178      4.000000
 -0.136265  0.078673  0.042178      4.000000
  0.000000  0.000000  0.084355      2.000000
  0.067913  0.038956  0.084355      8.000000
  0.135825  0.077911  0.084355      8.000000
  0.067693  0.117247  0.084355      4.000000
  0.135606  0.156203  0.084355      8.000000
 -0.136045  0.000381  0.084355      8.000000
 -0.068133  0.039336  0.084355      4.000000
  0.135386  0.234495  0.084355      4.000000
 -0.136265  0.078673  0.084355      4.000000
 


--------------------------------------------------------------------------------------------------------




 Dimension of arrays:
   k-Points           NKPTS =     27   number of bands    NBANDS=     16
   number of dos      NEDOS =    301   number of ions     NIONS =      2
   non local maximal  LDIM  =      6   non local SUM 2l+1 LMDIM =     18
   total plane-waves  NPLWV =  20736
   max r-space proj   IRMAX =      1   max aug-charges    IRDMAX=  22801
   dimension x,y,z NGX =    24 NGY =   24 NGZ =   36
   dimension x,y,z NGXF=    48 NGYF=   48 NGZF=   72
   support grid    NGXF=    48 NGYF=   48 NGZF=   72
   ions per type =               2
 NGX,Y,Z   is equivalent  to a cutoff of  13.57, 13.57, 12.62 a.u.
 NGXF,Y,Z  is equivalent  to a cutoff of  27.14, 27.14, 25.24 a.u.


 I would recommend the setting:
   dimension x,y,z NGX =    21 NGY =   21 NGZ =   35
 SYSTEM =  unknown system                          
 POSCAR =  Ti-hcp                                  

 Startparameter for this run:
   NWRITE =      2    write-flag & timer
   PREC   = accura    medium, high low
   ISTART =      0    job   : 0-new  1-cont  2-samecut
   ICHARG =      2    charge: 1-file 2-atom 10-const
   ISPIN  =      1    spin polarized calculation?
   LNONCOLLINEAR =      F non collinear calculations
   LSORBIT =      F    spin-orbit coupling
   INIWAV =      1    electr: 0-lowe 1-rand  2-diag
   LASPH  =      F    aspherical Exc in radial PAW
   METAGGA=      F    non-selfconsistent MetaGGA calc.

 Electronic Relaxation 1
   ENCUT  =  500.0 eV  36.75 Ry    6.06 a.u.   5.36  5.36  8.65*2*pi/ulx,y,z
   ENINI  =  500.0     initial cutoff
   ENAUG  =  482.8 eV  augmentation charge cutoff
   NELM   =     60;   NELMIN=  2; NELMDL=  0     # of ELM steps 
   EDIFF  = 0.1E-07   stopping-criterion for ELM
   LREAL  =      F    real-space projection
   LCOMPAT=      F    compatible to vasp.4.4
   LREAL_COMPAT= F    compatible to vasp.4.5.1-3
   GGA_COMPAT  = T    GGA compatible to vasp.4.4-vasp.4.6
   LMAXPAW     = -100 max onsite density
   LMAXMIX     =    2 max onsite mixed and CHGCAR
   VOSKOWN=      0    Vosko Wilk Nusair interpolation
   ROPT   =    0.00000
 Ionic relaxation
   EDIFFG = 0.1E-06   stopping-criterion for IOM
   NSW    =      0    number of steps for IOM
   NBLOCK =      1;   KBLOCK =      1    inner block; outer block 
   IBRION =     -1    ionic relax: 0-MD 1-quasi-New 2-CG
   NFREE  =      0    steps in history (QN), initial steepest desc. (CG)
   ISIF   =      2    stress and relaxation
   IWAVPR =     10    prediction:  0-non 1-charg 2-wave 3-comb
   ISYM   =      2    0-nonsym 1-usesym 2-fastsym
   LCORR  =      T    Harris-Foulkes like correction to forces

   POTIM  =   0.50    time-step for ionic-motion
   TEIN   =    0.0    initial temperature
   TEBEG  =    0.0;   TEEND  =   0.0 temperature during run
   SMASS  =  -3.00    Nose mass-parameter (am)
   estimated Nose-frequenzy (Omega)   =  0.10E-29 period in steps =****** mass=  -0.198E-27a.u.
   NPACO  =    256;   APACO  = 16.0  distance and # of slots for P.C.
   PSTRESS=    0.0 pullay stress

  Mass of Ions in am
   POMASS =  47.88
  Ionic Valenz
   ZVAL   =  10.00
  Atomic Wigner-Seitz radii
   RWIGS  =  -1.00
   NELECT =      20.0000    total number of electrons
   NUPDOWN=      -1.0000    fix difference up-down

 DOS related values:
   EMIN   =  10.00;   EMAX   =-10.00  energy-range for DOS
   ISMEAR =     0;   SIGMA  =   0.01  broadening in eV -4-tet -1-fermi 0-gaus

 Electronic relaxation 2 (details)
   IALGO  =     38    algorithm
   LDIAG  =      T    sub-space diagonalisation
   IMIX   =      4    mixing-type and parameters
     AMIX     =   0.40;   BMIX     =  1.00
     AMIX_MAG =   1.60;   BMIX_MAG =  1.00
     AMIN     =   0.10
     WC   =   100.;   INIMIX=   1;  MIXPRE=   1

 Intra band minimization:
   WEIMIN = 0.0000     energy-eigenvalue tresh-hold
   EBREAK =  0.18E-09  absolut break condition
   DEPER  =   0.30     relativ break condition  

   TIME   =   0.10     timestep for ELM

  volume/ion in A,a.u.               =      17.81       120.17
  Fermi-wavevector in a.u.,eV,Ry     =   1.350634 24.819930  1.824213

 Second variation
   LSECVAR=     F    do a second variation
 
 Write flags
   LWAVE  =      F    write WAVECAR
   LCHARG =      F    write CHGCAR
   LVTOT  =      F    write LOCPOT, local potential
   LELF   =      F    write electronic localiz. function (ELF)
   LORBIT =      0    0 simple, 1 ext, 2 COOP (PROOUT)


 Dipole corrections
   IDIPOL =      0    1-x, 2-y, 3-z
   LDIPOL =      F    correct potential



--------------------------------------------------------------------------------------------------------


 Static calculation
 charge density will be updated during run
 non-spin polarized calculation
 Variant of blocked Davidson
 Davidson routine will perform the subspace rotation
 performe sub-space diagonalisation
    after iterative eigenvector-optimisation
 modified Broyden-mixing scheme, WC =      100.0
 initial mixing is a Kerker type mixing with AMIX =  0.4000 and BMIX =      1.0000
 Hartree-type preconditioning will be used
 using additional bands            6
 reciprocal scheme for non local part
 use partial core corrections
 calculate Harris-corrections to forces 
   (improved forces if not selfconsistent)
 use gradient corrections 
 use of overlap-Matrix (Vanderbilt PP)
 Gauss-broadening in eV      SIGMA  =   0.01


--------------------------------------------------------------------------------------------------------


  energy-cutoff  :      500.00
  volume of cell :       35.62
      direct lattice vectors                 reciprocal lattice vectors
     2.940222367  0.008255147  0.000000000     0.339563460  0.194777930  0.000000000
    -1.462961957  2.550434870  0.000000000    -0.001099086  0.391459547  0.000000000
     0.000000000  0.000000000  4.741849350     0.000000000  0.000000000  0.210888184

  length of vectors
     2.940233955  2.940233956  4.741849350     0.391461090  0.391461090  0.210888184


 
 k-points in units of 2pi/SCALE and weight: Automatic mesh                          
   0.00000000  0.00000000  0.00000000       0.008
   0.06791269  0.03895559  0.00000000       0.032
   0.13582538  0.07791117  0.00000000       0.032
   0.06769287  0.11724750  0.00000000       0.016
   0.13560557  0.15620308  0.00000000       0.032
  -0.13604520  0.00038074  0.00000000       0.032
  -0.06813251  0.03933632  0.00000000       0.016
   0.13538575  0.23449499  0.00000000       0.016
  -0.13626502  0.07867265  0.00000000       0.016
   0.00000000  0.00000000  0.04217764       0.016
   0.06791269  0.03895559  0.04217764       0.064
   0.13582538  0.07791117  0.04217764       0.064
   0.06769287  0.11724750  0.04217764       0.032
   0.13560557  0.15620308  0.04217764       0.064
  -0.13604520  0.00038074  0.04217764       0.064
  -0.06813251  0.03933632  0.04217764       0.032
   0.13538575  0.23449499  0.04217764       0.032
  -0.13626502  0.07867265  0.04217764       0.032
   0.00000000  0.00000000  0.08435527       0.016
   0.06791269  0.03895559  0.08435527       0.064
   0.13582538  0.07791117  0.08435527       0.064
   0.06769287  0.11724750  0.08435527       0.032
   0.13560557  0.15620308  0.08435527       0.064
  -0.13604520  0.00038074  0.08435527       0.064
  -0.06813251  0.03933632  0.08435527       0.032
   0.13538575  0.23449499  0.08435527       0.032
  -0.13626502  0.07867265  0.08435527       0.032
 
 k-points in reciprocal lattice and weights: Automatic mesh                          
   0.00000000  0.00000000  0.00000000       0.008
   0.20000000 -0.00000000  0.00000000       0.032
   0.40000000 -0.00000000  0.00000000       0.032
   0.20000000  0.20000000  0.00000000       0.016
   0.40000000  0.20000000  0.00000000       0.032
  -0.40000000  0.20000000  0.00000000       0.032
  -0.20000000  0.20000000  0.00000000       0.016
   0.40000000  0.40000000  0.00000000       0.016
  -0.40000000  0.40000000  0.00000000       0.016
   0.00000000  0.00000000  0.20000000       0.016
   0.20000000 -0.00000000  0.20000000       0.064
   0.40000000 -0.00000000  0.20000000       0.064
   0.20000000  0.20000000  0.20000000       0.032
   0.40000000  0.20000000  0.20000000       0.064
  -0.40000000  0.20000000  0.20000000       0.064
  -0.20000000  0.20000000  0.20000000       0.032
   0.40000000  0.40000000  0.20000000       0.032
  -0.40000000  0.40000000  0.20000000       0.032
   0.00000000  0.00000000  0.40000000       0.016
   0.20000000 -0.00000000  0.40000000       0.064
   0.40000000 -0.00000000  0.40000000       0.064
   0.20000000  0.20000000  0.40000000       0.032
   0.40000000  0.20000000  0.40000000       0.064
  -0.40000000  0.20000000  0.40000000       0.064
  -0.20000000  0.20000000  0.40000000       0.032
   0.40000000  0.40000000  0.40000000       0.032
  -0.40000000  0.40000000  0.40000000       0.032
 
 position of ions in fractional coordinates (direct lattice) 
   0.33223018  0.66776982  0.25000000
   0.66776982  0.33223018  0.75000000
 
 position of ions in cartesian coordinates  (Angst):
  -0.00009122  1.70584603  1.18546234
   1.47735163  0.85284398  3.55638701
 


--------------------------------------------------------------------------------------------------------


 k-point  1 :  0.00000.00000.0000  plane waves:    925
 k-point  2 :  0.2000-.00000.0000  plane waves:    904
 k-point  3 :  0.4000-.00000.0000  plane waves:    896
 k-point  4 :  0.20000.20000.0000  plane waves:    907
 k-point  5 :  0.40000.20000.0000  plane waves:    904
 k-point  6 :  -.40000.20000.0000  plane waves:    910
 k-point  7 :  -.20000.20000.0000  plane waves:    903
 k-point  8 :  0.40000.40000.0000  plane waves:    906
 k-point  9 :  -.40000.40000.0000  plane waves:    898
 k-point 10 :  0.00000.00000.2000  plane waves:    915
 k-point 11 :  0.2000-.00000.2000  plane waves:    908
 k-point 12 :  0.4000-.00000.2000  plane waves:    900
 k-point 13 :  0.20000.20000.2000  plane waves:    904
 k-point 14 :  0.40000.20000.2000  plane waves:    904
 k-point 15 :  -.40000.20000.2000  plane waves:    905
 k-point 16 :  -.20000.20000.2000  plane waves:    904
 k-point 17 :  0.40000.40000.2000  plane waves:    906
 k-point 18 :  -.40000.40000.2000  plane waves:    900
 k-point 19 :  0.00000.00000.4000  plane waves:    922
 k-point 20 :  0.2000-.00000.4000  plane waves:    911
 k-point 21 :  0.4000-.00000.4000  plane waves:    901
 k-point 22 :  0.20000.20000.4000  plane waves:    897
 k-point 23 :  0.40000.20000.4000  plane waves:    895
 k-point 24 :  -.40000.20000.4000  plane waves:    897
 k-point 25 :  -.20000.20000.4000  plane waves:    913
 k-point 26 :  0.40000.40000.4000  plane waves:    898
 k-point 27 :  -.40000.40000.4000  plane waves:    898

 maximum and minimum number of plane-waves per node :    925   895

 maximum number of plane-waves:    925
 maximal index in each direction: 
   IXMAX=  5   IYMAX=  5   IZMAX=  8
   IXMIN= -5   IYMIN= -5   IZMIN= -9

 NGX is ok and might be reduce to  22
 NGY is ok and might be reduce to  22
 NGZ is ok and might be reduce to  36

 parallel 3dFFT wavefunction:
    minimum data exchange during FFTs selected (reduces bandwidth)
 parallel 3dFFT charge:
    minimum data exchange during FFTs selected (reduces bandwidth)

 For storing wavefunctions    6.25 MBYTES are necessary
 For predicting wavefunctions    0.90 MBYTES are necessary
Broyden mixing: mesh for mixing (old mesh)
   NGX = 11   NGY = 11   NGZ = 17
  (NGX  = 48   NGY  = 48   NGZ  = 72)
 gives a total of   2057 points
 initial charge density was supplied:
 charge density of overlapping atoms calculated
 number of electron   20.0000000 magnetization 
 keeping initial charge density in first step


--------------------------------------------------------------------------------------------------------


 Maximum index for augmentation-charges         5478 (set IRDMAX)


--------------------------------------------------------------------------------------------------------


 First call to EWALD:  gamma=   0.539
 Maximum number of real-space cells 3x 3x 2
 Maximum number of reciprocal cells 3x 3x 4

    FEWALD:  VPU time    0.00: CPU time    0.00


----------------------------------------- Iteration    1(   1)  ---------------------------------------


    POTLOK:  VPU time    0.05: CPU time    0.05
    SETDIJ:  VPU time    0.01: CPU time    0.01
    EDDAV :  VPU time    0.59: CPU time    0.59
    DOS   :  VPU time    0.00: CPU time   -0.00
    ------------------------------------------
      LOOP:  VPU time    0.65: CPU time    0.65

 eigenvalue-minimisations  :   864
 total energy-change (2. order) : 0.1535617E+03  (-0.1096169E+04)
 number of electron   20.0000000 magnetization 
 augmentation part    20.0000000 magnetization 

 Free energy of the ion-electron system (eV)
  ---------------------------------------------------
  alpha Z        PSCENC =       122.46558870
  Ewald energy   TEWEN  =     -1592.54957376
  -1/2 Hartree   DENC   =      -450.00955094
  -V(xc)+E(xc)   XCENC  =        71.68089636
  PAW double counting   =      1428.40628957    -1426.98428199
  entropy T*S    EENTRO =        -0.00014381
  eigenvalues    EBANDS =       -84.19890724
  atomic energy  EATOM  =      2084.75134655
  ---------------------------------------------------
  free energy    TOTEN  =       153.56166343 eV

  energy without entropy =      153.56180724  energy(sigma->0) =      153.56173534


--------------------------------------------------------------------------------------------------------




----------------------------------------- Iteration    1(   2)  ---------------------------------------


    EDDAV :  VPU time    0.58: CPU time    0.58
    DOS   :  VPU time    0.00: CPU time   -0.00
    ------------------------------------------
      LOOP:  VPU time    0.58: CPU time    0.58

 eigenvalue-minimisations  :   872
 total energy-change (2. order) :-0.1671856E+03  (-0.1654463E+03)
 number of electron   20.0000000 magnetization 
 augmentation part    20.0000000 magnetization 

 Free energy of the ion-electron system (eV)
  ---------------------------------------------------
  alpha Z        PSCENC =       122.46558870
  Ewald energy   TEWEN  =     -1592.54957376
  -1/2 Hartree   DENC   =      -450.00955094
  -V(xc)+E(xc)   XCENC  =        71.68089636
  PAW double counting   =      1428.40628957    -1426.98428199
  entropy T*S    EENTRO =        -0.00037089
  eigenvalues    EBANDS =      -251.38432664
  atomic energy  EATOM  =      2084.75134655
  ---------------------------------------------------
  free energy    TOTEN  =       -13.62398305 eV

  energy without entropy =      -13.62361216  energy(sigma->0) =      -13.62379760


--------------------------------------------------------------------------------------------------------




----------------------------------------- Iteration    1(   3)  ---------------------------------------


    EDDAV :  VPU time    0.75: CPU time    0.75
    DOS   :  VPU time    0.00: CPU time   -0.00
    ------------------------------------------
      LOOP:  VPU time    0.75: CPU time    0.76

 eigenvalue-minimisations  :  1216
 total energy-change (2. order) :-0.4365621E+01  (-0.4310760E+01)
 number of electron   20.0000000 magnetization 
 augmentation part    20.0000000 magnetization 

 Free energy of the ion-electron system (eV)
  ---------------------------------------------------
  alpha Z        PSCENC =       122.46558870
  Ewald energy   TEWEN  =     -1592.54957376
  -1/2 Hartree   DENC   =      -450.00955094
  -V(xc)+E(xc)   XCENC  =        71.68089636
  PAW double counting   =      1428.40628957    -1426.98428199
  entropy T*S    EENTRO =        -0.00053417
  eigenvalues    EBANDS =      -255.74978453
  atomic energy  EATOM  =      2084.75134655
  ---------------------------------------------------
  free energy    TOTEN  =       -17.98960421 eV

  energy without entropy =      -17.98907004  energy(sigma->0) =      -17.98933713


--------------------------------------------------------------------------------------------------------




----------------------------------------- Iteration    1(   4)  ---------------------------------------


    EDDAV :  VPU time    0.60: CPU time    0.60
    DOS   :  VPU time    0.00: CPU time   -0.00
    ------------------------------------------
      LOOP:  VPU time    0.60: CPU time    0.60

 eigenvalue-minimisations  :   920
 total energy-change (2. order) :-0.7634185E-01  (-0.7440412E-01)
 number of electron   20.0000000 magnetization 
 augmentation part    20.0000000 magnetization 

 Free energy of the ion-electron system (eV)
  ---------------------------------------------------
  alpha Z        PSCENC =       122.46558870
  Ewald energy   TEWEN  =     -1592.54957376
  -1/2 Hartree   DENC   =      -450.00955094
  -V(xc)+E(xc)   XCENC  =        71.68089636
  PAW double counting   =      1428.40628957    -1426.98428199
  entropy T*S    EENTRO =        -0.00035060
  eigenvalues    EBANDS =      -255.82630995
  atomic energy  EATOM  =      2084.75134655
  ---------------------------------------------------
  free energy    TOTEN  =       -18.06594606 eV

  energy without entropy =      -18.06559547  energy(sigma->0) =      -18.06577077


--------------------------------------------------------------------------------------------------------




----------------------------------------- Iteration    1(   5)  ---------------------------------------


    EDDAV :  VPU time    0.69: CPU time    0.69
    DOS   :  VPU time    0.00: CPU time   -0.00
    CHARGE:  VPU time    0.04: CPU time    0.04
    MIXING:  VPU time    0.00: CPU time    0.00
    ------------------------------------------
      LOOP:  VPU time    0.74: CPU time    0.74

 eigenvalue-minimisations  :  1088
 total energy-change (2. order) :-0.1436661E-02  (-0.1436624E-02)
 number of electron   19.9999994 magnetization 
 augmentation part     8.7155457 magnetization 

 Broyden mixing:
  rms(total) = 0.85375E+00    rms(broyden)= 0.85374E+00
  rms(prec ) = 0.18995E+01
  weight for this iteration     100.00

 Free energy of the ion-electron system (eV)
  ---------------------------------------------------
  alpha Z        PSCENC =       122.46558870
  Ewald energy   TEWEN  =     -1592.54957376
  -1/2 Hartree   DENC   =      -450.00955094
  -V(xc)+E(xc)   XCENC  =        71.68089636
  PAW double counting   =      1428.40628957    -1426.98428199
  entropy T*S    EENTRO =        -0.00034993
  eigenvalues    EBANDS =      -255.82774728
  atomic energy  EATOM  =      2084.75134655
  ---------------------------------------------------
  free energy    TOTEN  =       -18.06738273 eV

  energy without entropy =      -18.06703279  energy(sigma->0) =      -18.06720776


--------------------------------------------------------------------------------------------------------




----------------------------------------- Iteration    1(   6)  ---------------------------------------


    POTLOK:  VPU time    0.05: CPU time    0.05
    SETDIJ:  VPU time    0.01: CPU time    0.01
    EDDAV :  VPU time    0.63: CPU time    0.63
    DOS   :  VPU time    0.00: CPU time   -0.00
    CHARGE:  VPU time    0.04: CPU time    0.04
    MIXING:  VPU time    0.00: CPU time    0.00
    ------------------------------------------
      LOOP:  VPU time    0.74: CPU time    0.74

 eigenvalue-minimisations  :   992
 total energy-change (2. order) : 0.2186159E+01  (-0.7093740E+00)
 number of electron   19.9999993 magnetization 
 augmentation part     9.2820295 magnetization 

 Broyden mixing:
  rms(total) = 0.19401E+00    rms(broyden)= 0.19399E+00
  rms(prec ) = 0.43608E+00
  weight for this iteration     100.00

 eigenvalues of (default mixing * dielectric matrix)
  average eigenvalue GAMMA=   1.2126
  1.2126

 Free energy of the ion-electron system (eV)
  ---------------------------------------------------
  alpha Z        PSCENC =       122.46558870
  Ewald energy   TEWEN  =     -1592.54957376
  -1/2 Hartree   DENC   =      -409.61351129
  -V(xc)+E(xc)   XCENC  =        69.54670313
  PAW double counting   =      1379.28013959    -1381.66352927
  entropy T*S    EENTRO =        -0.00009733
  eigenvalues    EBANDS =      -288.09828964
  atomic energy  EATOM  =      2084.75134655
  ---------------------------------------------------
  free energy    TOTEN  =       -15.88122333 eV

  energy without entropy =      -15.88112600  energy(sigma->0) =      -15.88117467


--------------------------------------------------------------------------------------------------------




----------------------------------------- Iteration    1(   7)  ---------------------------------------


    POTLOK:  VPU time    0.05: CPU time    0.05
    SETDIJ:  VPU time    0.01: CPU time    0.01
    EDDAV :  VPU time    0.69: CPU time    0.69
    DOS   :  VPU time    0.00: CPU time   -0.00
    CHARGE:  VPU time    0.04: CPU time    0.04
    MIXING:  VPU time    0.00: CPU time    0.00
    ------------------------------------------
      LOOP:  VPU time    0.80: CPU time    0.80

 eigenvalue-minimisations  :  1104
 total energy-change (2. order) : 0.9533002E-01  (-0.5630830E-01)
 number of electron   19.9999993 magnetization 
 augmentation part     9.4304635 magnetization 

 Broyden mixing:
  rms(total) = 0.78268E-01    rms(broyden)= 0.78263E-01
  rms(prec ) = 0.12550E+00
  weight for this iteration     100.00

 eigenvalues of (default mixing * dielectric matrix)
  average eigenvalue GAMMA=   1.8869
  1.2610  2.5128

 Free energy of the ion-electron system (eV)
  ---------------------------------------------------
  alpha Z        PSCENC =       122.46558870
  Ewald energy   TEWEN  =     -1592.54957376
  -1/2 Hartree   DENC   =      -399.59684003
  -V(xc)+E(xc)   XCENC  =        69.05876394
  PAW double counting   =      1387.49123159    -1391.73164519
  entropy T*S    EENTRO =        -0.00004385
  eigenvalues    EBANDS =      -295.67472127
  atomic energy  EATOM  =      2084.75134655
  ---------------------------------------------------
  free energy    TOTEN  =       -15.78589331 eV

  energy without entropy =      -15.78584947  energy(sigma->0) =      -15.78587139


--------------------------------------------------------------------------------------------------------




----------------------------------------- Iteration    1(   8)  ---------------------------------------


    POTLOK:  VPU time    0.05: CPU time    0.05
    SETDIJ:  VPU time    0.01: CPU time    0.01
    EDDAV :  VPU time    0.59: CPU time    0.59
    DOS   :  VPU time    0.00: CPU time   -0.00
    CHARGE:  VPU time    0.04: CPU time    0.04
    MIXING:  VPU time    0.00: CPU time    0.00
    ------------------------------------------
      LOOP:  VPU time    0.69: CPU time    0.69

 eigenvalue-minimisations  :   896
 total energy-change (2. order) : 0.1064402E-01  (-0.2714022E-02)
 number of electron   19.9999993 magnetization 
 augmentation part     9.4067167 magnetization 

 Broyden mixing:
  rms(total) = 0.16009E-01    rms(broyden)= 0.16008E-01
  rms(prec ) = 0.34752E-01
  weight for this iteration     100.00

 eigenvalues of (default mixing * dielectric matrix)
  average eigenvalue GAMMA=   1.6102
  1.1323  1.1323  2.5660

 Free energy of the ion-electron system (eV)
  ---------------------------------------------------
  alpha Z        PSCENC =       122.46558870
  Ewald energy   TEWEN  =     -1592.54957376
  -1/2 Hartree   DENC   =      -399.60922167
  -V(xc)+E(xc)   XCENC  =        69.13006913
  PAW double counting   =      1417.34447894    -1422.91736427
  entropy T*S    EENTRO =        -0.00003711
  eigenvalues    EBANDS =      -294.39053579
  atomic energy  EATOM  =      2084.75134655
  ---------------------------------------------------
  free energy    TOTEN  =       -15.77524929 eV

  energy without entropy =      -15.77521218  energy(sigma->0) =      -15.77523074


--------------------------------------------------------------------------------------------------------




----------------------------------------- Iteration    1(   9)  ---------------------------------------


    POTLOK:  VPU time    0.05: CPU time    0.05
    SETDIJ:  VPU time    0.01: CPU time    0.01
    EDDAV :  VPU time    0.64: CPU time    0.64
    DOS   :  VPU time    0.00: CPU time   -0.00
    CHARGE:  VPU time    0.04: CPU time    0.04
    MIXING:  VPU time    0.00: CPU time    0.00
    ------------------------------------------
      LOOP:  VPU time    0.75: CPU time    0.75

 eigenvalue-minimisations  :  1000
 total energy-change (2. order) : 0.9324018E-03  (-0.5954748E-03)
 number of electron   19.9999993 magnetization 
 augmentation part     9.4222696 magnetization 

 Broyden mixing:
  rms(total) = 0.28295E-02    rms(broyden)= 0.28286E-02
  rms(prec ) = 0.50770E-02
  weight for this iteration     100.00

 eigenvalues of (default mixing * dielectric matrix)
  average eigenvalue GAMMA=   1.7562
  1.0456  1.1179  2.4678  2.3934

 Free energy of the ion-electron system (eV)
  ---------------------------------------------------
  alpha Z        PSCENC =       122.46558870
  Ewald energy   TEWEN  =     -1592.54957376
  -1/2 Hartree   DENC   =      -398.67167859
  -V(xc)+E(xc)   XCENC  =        69.08178421
  PAW double counting   =      1416.56387182    -1422.13154345
  entropy T*S    EENTRO =        -0.00004128
  eigenvalues    EBANDS =      -295.28407109
  atomic energy  EATOM  =      2084.75134655
  ---------------------------------------------------
  free energy    TOTEN  =       -15.77431689 eV

  energy without entropy =      -15.77427561  energy(sigma->0) =      -15.77429625


--------------------------------------------------------------------------------------------------------




----------------------------------------- Iteration    1(  10)  ---------------------------------------


    POTLOK:  VPU time    0.05: CPU time    0.05
    SETDIJ:  VPU time    0.01: CPU time    0.01
    EDDAV :  VPU time    0.70: CPU time    0.70
    DOS   :  VPU time    0.00: CPU time   -0.00
    CHARGE:  VPU time    0.04: CPU time    0.04
    MIXING:  VPU time    0.00: CPU time    0.00
    ------------------------------------------
      LOOP:  VPU time    0.81: CPU time    0.81

 eigenvalue-minimisations  :  1112
 total energy-change (2. order) : 0.6228348E-05  (-0.1318630E-04)
 number of electron   19.9999993 magnetization 
 augmentation part     9.4224277 magnetization 

 Broyden mixing:
  rms(total) = 0.11438E-02    rms(broyden)= 0.11437E-02
  rms(prec ) = 0.22110E-02
  weight for this iteration     100.00

 eigenvalues of (default mixing * dielectric matrix)
  average eigenvalue GAMMA=   1.5399
  2.5739  2.2908  1.0888  1.0888  0.6570

 Free energy of the ion-electron system (eV)
  ---------------------------------------------------
  alpha Z        PSCENC =       122.46558870
  Ewald energy   TEWEN  =     -1592.54957376
  -1/2 Hartree   DENC   =      -398.79642866
  -V(xc)+E(xc)   XCENC  =        69.08884970
  PAW double counting   =      1417.06987124    -1422.52198863
  entropy T*S    EENTRO =        -0.00004562
  eigenvalues    EBANDS =      -295.28193018
  atomic energy  EATOM  =      2084.75134655
  ---------------------------------------------------
  free energy    TOTEN  =       -15.77431066 eV

  energy without entropy =      -15.77426504  energy(sigma->0) =      -15.77428785


--------------------------------------------------------------------------------------------------------




----------------------------------------- Iteration    1(  11)  ---------------------------------------


    POTLOK:  VPU time    0.05: CPU time    0.05
    SETDIJ:  VPU time    0.01: CPU time    0.01
    EDDAV :  VPU time    0.65: CPU time    0.65
    DOS   :  VPU time    0.00: CPU time   -0.00
    CHARGE:  VPU time    0.04: CPU time    0.04
    MIXING:  VPU time    0.00: CPU time    0.00
    ------------------------------------------
      LOOP:  VPU time    0.75: CPU time    0.75

 eigenvalue-minimisations  :  1008
 total energy-change (2. order) : 0.2253366E-05  (-0.8081652E-06)
 number of electron   19.9999993 magnetization 
 augmentation part     9.4219055 magnetization 

 Broyden mixing:
  rms(total) = 0.44417E-03    rms(broyden)= 0.44417E-03
  rms(prec ) = 0.82158E-03
  weight for this iteration     100.00

 eigenvalues of (default mixing * dielectric matrix)
  average eigenvalue GAMMA=   1.6792
  2.7152  2.5312  1.0712  1.0712  1.0488  1.6375

 Free energy of the ion-electron system (eV)
  ---------------------------------------------------
  alpha Z        PSCENC =       122.46558870
  Ewald energy   TEWEN  =     -1592.54957376
  -1/2 Hartree   DENC   =      -398.83371422
  -V(xc)+E(xc)   XCENC  =        69.09105783
  PAW double counting   =      1417.20142861    -1422.64861860
  entropy T*S    EENTRO =        -0.00004482
  eigenvalues    EBANDS =      -295.25177869
  atomic energy  EATOM  =      2084.75134655
  ---------------------------------------------------
  free energy    TOTEN  =       -15.77430841 eV

  energy without entropy =      -15.77426359  energy(sigma->0) =      -15.77428600


--------------------------------------------------------------------------------------------------------




----------------------------------------- Iteration    1(  12)  ---------------------------------------


    POTLOK:  VPU time    0.05: CPU time    0.05
    SETDIJ:  VPU time    0.01: CPU time    0.01
    EDDAV :  VPU time    0.70: CPU time    0.70
    DOS   :  VPU time   -0.00: CPU time   -0.00
    CHARGE:  VPU time    0.04: CPU time    0.04
    MIXING:  VPU time    0.00: CPU time    0.00
    ------------------------------------------
      LOOP:  VPU time    0.81: CPU time    0.81

 eigenvalue-minimisations  :  1104
 total energy-change (2. order) : 0.2949779E-05  (-0.1867915E-06)
 number of electron   19.9999993 magnetization 
 augmentation part     9.4216672 magnetization 

 Broyden mixing:
  rms(total) = 0.89340E-04    rms(broyden)= 0.89294E-04
  rms(prec ) = 0.17725E-03
  weight for this iteration     100.00

 eigenvalues of (default mixing * dielectric matrix)
  average eigenvalue GAMMA=   1.5965
  2.7130  2.5138  1.6670  0.9731  1.1127  1.1127  1.0833

 Free energy of the ion-electron system (eV)
  ---------------------------------------------------
  alpha Z        PSCENC =       122.46558870
  Ewald energy   TEWEN  =     -1592.54957376
  -1/2 Hartree   DENC   =      -398.86135043
  -V(xc)+E(xc)   XCENC  =        69.09264868
  PAW double counting   =      1417.24848248    -1422.68094866
  entropy T*S    EENTRO =        -0.00004365
  eigenvalues    EBANDS =      -295.24045536
  atomic energy  EATOM  =      2084.75134655
  ---------------------------------------------------
  free energy    TOTEN  =       -15.77430546 eV

  energy without entropy =      -15.77426181  energy(sigma->0) =      -15.77428363


--------------------------------------------------------------------------------------------------------




----------------------------------------- Iteration    1(  13)  ---------------------------------------


    POTLOK:  VPU time    0.05: CPU time    0.05
    SETDIJ:  VPU time    0.01: CPU time    0.01
    EDDAV :  VPU time    0.64: CPU time    0.65
    DOS   :  VPU time    0.00: CPU time   -0.00
    CHARGE:  VPU time    0.04: CPU time    0.04
    MIXING:  VPU time    0.00: CPU time    0.00
    ------------------------------------------
      LOOP:  VPU time    0.75: CPU time    0.75

 eigenvalue-minimisations  :  1000
 total energy-change (2. order) :-0.1573540E-06  (-0.9306597E-08)
 number of electron   19.9999993 magnetization 
 augmentation part     9.4217175 magnetization 

 Broyden mixing:
  rms(total) = 0.24007E-04    rms(broyden)= 0.23999E-04
  rms(prec ) = 0.39936E-04
  weight for this iteration     100.00

 eigenvalues of (default mixing * dielectric matrix)
  average eigenvalue GAMMA=   1.6898
  2.6733  2.4707  2.4707  1.6787  1.1129  1.1129  0.9997  0.9997

 Free energy of the ion-electron system (eV)
  ---------------------------------------------------
  alpha Z        PSCENC =       122.46558870
  Ewald energy   TEWEN  =     -1592.54957376
  -1/2 Hartree   DENC   =      -398.85748285
  -V(xc)+E(xc)   XCENC  =        69.09244151
  PAW double counting   =      1417.23486547    -1422.66831343
  entropy T*S    EENTRO =        -0.00004369
  eigenvalues    EBANDS =      -295.24313410
  atomic energy  EATOM  =      2084.75134655
  ---------------------------------------------------
  free energy    TOTEN  =       -15.77430561 eV

  energy without entropy =      -15.77426193  energy(sigma->0) =      -15.77428377


--------------------------------------------------------------------------------------------------------




----------------------------------------- Iteration    1(  14)  ---------------------------------------


    POTLOK:  VPU time    0.05: CPU time    0.05
    SETDIJ:  VPU time    0.01: CPU time    0.01
    EDDAV :  VPU time    0.40: CPU time    0.40
    DOS   :  VPU time    0.00: CPU time   -0.00
    CHARGE:  VPU time    0.04: CPU time    0.04
    MIXING:  VPU time    0.00: CPU time    0.00
    ------------------------------------------
      LOOP:  VPU time    0.50: CPU time    0.51

 eigenvalue-minimisations  :   472
 total energy-change (2. order) :-0.1247513E-06  (-0.2009675E-09)
 number of electron   19.9999993 magnetization 
 augmentation part     9.4217219 magnetization 

 Broyden mixing:
  rms(total) = 0.35704E-05    rms(broyden)= 0.35655E-05
  rms(prec ) = 0.62235E-05
  weight for this iteration     100.00

 eigenvalues of (default mixing * dielectric matrix)
  average eigenvalue GAMMA=   1.6511
  2.8119  2.5626  2.5084  1.7141  1.0897  1.0897  1.0973  0.9812  1.0049

 Free energy of the ion-electron system (eV)
  ---------------------------------------------------
  alpha Z        PSCENC =       122.46558870
  Ewald energy   TEWEN  =     -1592.54957376
  -1/2 Hartree   DENC   =      -398.85642008
  -V(xc)+E(xc)   XCENC  =        69.09237910
  PAW double counting   =      1417.22117711    -1422.65548674
  entropy T*S    EENTRO =        -0.00004368
  eigenvalues    EBANDS =      -295.24327294
  atomic energy  EATOM  =      2084.75134655
  ---------------------------------------------------
  free energy    TOTEN  =       -15.77430574 eV

  energy without entropy =      -15.77426206  energy(sigma->0) =      -15.77428390


--------------------------------------------------------------------------------------------------------




----------------------------------------- Iteration    1(  15)  ---------------------------------------


    POTLOK:  VPU time    0.05: CPU time    0.05
    SETDIJ:  VPU time    0.01: CPU time    0.01
    EDDAV :  VPU time    0.40: CPU time    0.40
    DOS   :  VPU time    0.00: CPU time   -0.00
    CHARGE:  VPU time    0.04: CPU time    0.04
    MIXING:  VPU time    0.00: CPU time    0.00
    ------------------------------------------
      LOOP:  VPU time    0.50: CPU time    0.50

 eigenvalue-minimisations  :   464
 total energy-change (2. order) :-0.3383502E-07  (-0.4023446E-10)
 number of electron   19.9999993 magnetization 
 augmentation part     9.4217229 magnetization 

 Broyden mixing:
  rms(total) = 0.11747E-05    rms(broyden)= 0.11743E-05
  rms(prec ) = 0.24190E-05
  weight for this iteration     100.00

 eigenvalues of (default mixing * dielectric matrix)
  average eigenvalue GAMMA=   1.6499
  2.7801  2.6584  2.3796  1.9468  1.5120  1.1376  1.1376  1.0184  0.9643  0.9643

 Free energy of the ion-electron system (eV)
  ---------------------------------------------------
  alpha Z        PSCENC =       122.46558870
  Ewald energy   TEWEN  =     -1592.54957376
  -1/2 Hartree   DENC   =      -398.85613643
  -V(xc)+E(xc)   XCENC  =        69.09236464
  PAW double counting   =      1417.21911583    -1422.65363264
  entropy T*S    EENTRO =        -0.00004368
  eigenvalues    EBANDS =      -295.24333498
  atomic energy  EATOM  =      2084.75134655
  ---------------------------------------------------
  free energy    TOTEN  =       -15.77430577 eV

  energy without entropy =      -15.77426210  energy(sigma->0) =      -15.77428393


--------------------------------------------------------------------------------------------------------




----------------------------------------- Iteration    1(  16)  ---------------------------------------


    POTLOK:  VPU time    0.05: CPU time    0.05
    SETDIJ:  VPU time    0.01: CPU time    0.01
    EDDAV :  VPU time    0.40: CPU time    0.40
    DOS   :  VPU time    0.00: CPU time   -0.00
    ------------------------------------------
      LOOP:  VPU time    0.46: CPU time    0.46

 eigenvalue-minimisations  :   464
 total energy-change (2. order) : 0.3764853E-08  (-0.9317844E-11)
 number of electron   19.9999993 magnetization 
 augmentation part     9.4217229 magnetization 

 Free energy of the ion-electron system (eV)
  ---------------------------------------------------
  alpha Z        PSCENC =       122.46558870
  Ewald energy   TEWEN  =     -1592.54957376
  -1/2 Hartree   DENC   =      -398.85613440
  -V(xc)+E(xc)   XCENC  =        69.09236419
  PAW double counting   =      1417.21925920    -1422.65375862
  entropy T*S    EENTRO =        -0.00004368
  eigenvalues    EBANDS =      -295.24335394
  atomic energy  EATOM  =      2084.75134655
  ---------------------------------------------------
  free energy    TOTEN  =       -15.77430577 eV

  energy without entropy =      -15.77426209  energy(sigma->0) =      -15.77428393


--------------------------------------------------------------------------------------------------------




 average (electrostatic) potential at core
  the test charge radii are     1.0397
  (the norm of the test charge is              1.0000)
       1 -51.3377       2 -51.3377
 
 
 
 E-fermi :   5.6400     XC(G=0): -11.2838     alpha+bet :-13.3505
   add alpha+bet to get absolut eigen values

 k-point   1 :       0.0000    0.0000    0.0000
  band No.  band energies     occupation 
      1     -27.7068      2.00000
      2     -27.1069      2.00000
      3     -27.1049      2.00000
      4     -27.0761      2.00000
      5     -27.0213      2.00000
      6     -27.0190      2.00000
      7      -0.3914      2.00000
      8       3.0866      2.00000
      9       6.2807      0.00000
     10       6.4452      0.00000
     11       6.4742      0.00000
     12       6.5368      0.00000
     13       6.9149      0.00000
     14       6.9742      0.00000
     15       7.3391      0.00000
     16       7.3893      0.00000

 k-point   2 :       0.2000   -0.0000    0.0000
  band No.  band energies     occupation 
      1     -27.6313      2.00000
      2     -27.2619      2.00000
      3     -27.1776      2.00000
      4     -27.1535      2.00000
      5     -27.1080      2.00000
      6     -27.0436      2.00000
      7       0.6584      2.00000
      8       3.8179      2.00000
      9       5.1039      2.00000
     10       5.5404      2.00000
     11       6.4547      0.00000
     12       6.8841      0.00000
     13       6.9181      0.00000
     14       7.2392      0.00000
     15       7.2629      0.00000
     16       7.6061      0.00000

 k-point   3 :       0.4000   -0.0000    0.0000
  band No.  band energies     occupation 
      1     -27.5164      2.00000
      2     -27.4701      2.00000
      3     -27.4158      2.00000
      4     -27.2261      2.00000
      5     -27.1982      2.00000
      6     -27.0849      2.00000
      7       2.8582      2.00000
      8       3.8893      2.00000
      9       4.0619      2.00000
     10       5.1093      2.00000
     11       6.3249      0.00000
     12       6.3649      0.00000
     13       6.6231      0.00000
     14       8.7170      0.00000
     15       8.8927      0.00000
     16       8.9289      0.00000

 k-point   4 :       0.2000    0.2000    0.0000
  band No.  band energies     occupation 
      1     -27.5090      2.00000
      2     -27.3934      2.00000
      3     -27.3811      2.00000
      4     -27.2198      2.00000
      5     -27.1733      2.00000
      6     -27.1351      2.00000
      7       2.3907      2.00000
      8       4.3622      2.00000
      9       4.5070      2.00000
     10       4.7282      2.00000
     11       6.0744      0.00000
     12       6.4592      0.00000
     13       6.6909      0.00000
     14       7.6902      0.00000
     15       8.5058      0.00000
     16       8.9363      0.00000

 k-point   5 :       0.4000    0.2000    0.0000
  band No.  band energies     occupation 
      1     -27.5109      2.00000
      2     -27.4093      2.00000
      3     -27.3846      2.00000
      4     -27.3232      2.00000
      5     -27.2611      2.00000
      6     -27.1950      2.00000
      7       3.9556      2.00000
      8       4.0602      2.00000
      9       4.1467      2.00000
     10       4.7437      2.00000
     11       5.9886      0.00000
     12       6.0960      0.00000
     13       6.9404      0.00000
     14       8.6220      0.00000
     15       8.9050      0.00000
     16       8.9058      0.00000

 k-point   6 :      -0.4000    0.2000    0.0000
  band No.  band energies     occupation 
      1     -27.5092      2.00000
      2     -27.4040      2.00000
      3     -27.3904      2.00000
      4     -27.2170      2.00000
      5     -27.1712      2.00000
      6     -27.1308      2.00000
      7       2.4132      2.00000
      8       4.3413      2.00000
      9       4.5099      2.00000
     10       4.7315      2.00000
     11       6.0624      0.00000
     12       6.4517      0.00000
     13       6.7056      0.00000
     14       7.7066      0.00000
     15       8.5104      0.00000
     16       8.9499      0.00000

 k-point   7 :      -0.2000    0.2000    0.0000
  band No.  band energies     occupation 
      1     -27.6312      2.00000
      2     -27.2638      2.00000
      3     -27.1809      2.00000
      4     -27.1566      2.00000
      5     -27.1070      2.00000
      6     -27.0437      2.00000
      7       0.6680      2.00000
      8       3.8226      2.00000
      9       5.0881      2.00000
     10       5.5760      2.00000
     11       6.4952      0.00000
     12       6.8752      0.00000
     13       6.9305      0.00000
     14       7.1936      0.00000
     15       7.2578      0.00000
     16       7.5767      0.00000

 k-point   8 :       0.4000    0.4000    0.0000
  band No.  band energies     occupation 
      1     -27.5188      2.00000
      2     -27.4146      2.00000
      3     -27.3871      2.00000
      4     -27.3243      2.00000
      5     -27.2567      2.00000
      6     -27.1939      2.00000
      7       3.9502      2.00000
      8       4.0431      2.00000
      9       4.1308      2.00000
     10       4.7790      2.00000
     11       5.9484      0.00000
     12       6.1434      0.00000
     13       6.9743      0.00000
     14       8.6250      0.00000
     15       8.9060      0.00000
     16       8.9219      0.00000

 k-point   9 :      -0.4000    0.4000    0.0000
  band No.  band energies     occupation 
      1     -27.5241      2.00000
      2     -27.4712      2.00000
      3     -27.4210      2.00000
      4     -27.2317      2.00000
      5     -27.1940      2.00000
      6     -27.0878      2.00000
      7       2.8702      2.00000
      8       3.8830      2.00000
      9       4.0373      2.00000
     10       5.1412      2.00000
     11       6.3109      0.00000
     12       6.3855      0.00000
     13       6.6759      0.00000
     14       8.7206      0.00000
     15       8.8910      0.00000
     16       8.9303      0.00000

 k-point  10 :       0.0000    0.0000    0.2000
  band No.  band energies     occupation 
      1     -27.6489      2.00000
      2     -27.1388      2.00000
      3     -27.0986      2.00000
      4     -27.0970      2.00000
      5     -27.0294      2.00000
      6     -27.0274      2.00000
      7      -0.0721      2.00000
      8       2.8598      2.00000
      9       5.8742      0.00000
     10       6.3088      0.00000
     11       6.3529      0.00000
     12       6.4345      0.00000
     13       6.7693      0.00000
     14       6.8271      0.00000
     15       7.6276      0.00000
     16       7.6797      0.00000

 k-point  11 :       0.2000   -0.0000    0.2000
  band No.  band energies     occupation 
      1     -27.5942      2.00000
      2     -27.2532      2.00000
      3     -27.2264      2.00000
      4     -27.1432      2.00000
      5     -27.1073      2.00000
      6     -27.0542      2.00000
      7       0.9364      2.00000
      8       3.6404      2.00000
      9       4.8989      2.00000
     10       5.6201      1.99528
     11       6.2647      0.00000
     12       6.6507      0.00000
     13       6.8253      0.00000
     14       7.3524      0.00000
     15       7.6505      0.00000
     16       7.6607      0.00000

 k-point  12 :       0.4000   -0.0000    0.2000
  band No.  band energies     occupation 
      1     -27.5766      2.00000
      2     -27.4717      2.00000
      3     -27.3677      2.00000
      4     -27.2130      2.00000
      5     -27.1831      2.00000
      6     -27.0985      2.00000
      7       2.8644      2.00000
      8       3.7602      2.00000
      9       4.3469      2.00000
     10       5.0130      2.00000
     11       6.4301      0.00000
     12       6.5480      0.00000
     13       6.6867      0.00000
     14       8.5665      0.00000
     15       8.7551      0.00000
     16       8.8236      0.00000

 k-point  13 :       0.2000    0.2000    0.2000
  band No.  band energies     occupation 
      1     -27.5322      2.00000
      2     -27.4173      2.00000
      3     -27.3238      2.00000
      4     -27.2507      2.00000
      5     -27.1462      2.00000
      6     -27.1412      2.00000
      7       2.5552      2.00000
      8       4.1518      2.00000
      9       4.6613      2.00000
     10       4.8404      2.00000
     11       6.0195      0.00000
     12       6.3854      0.00000
     13       6.6020      0.00000
     14       7.7457      0.00000
     15       8.4998      0.00000
     16       8.6841      0.00000

 k-point  14 :       0.4000    0.2000    0.2000
  band No.  band energies     occupation 
      1     -27.5449      2.00000
      2     -27.4692      2.00000
      3     -27.3773      2.00000
      4     -27.2629      2.00000
      5     -27.2475      2.00000
      6     -27.1806      2.00000
      7       3.7181      2.00000
      8       4.1903      2.00000
      9       4.5705      2.00000
     10       4.6623      2.00000
     11       5.8633      0.00000
     12       6.0944      0.00000
     13       7.0053      0.00000
     14       8.4401      0.00000
     15       8.6364      0.00000
     16       8.9973      0.00000

 k-point  15 :      -0.4000    0.2000    0.2000
  band No.  band energies     occupation 
      1     -27.5338      2.00000
      2     -27.4260      2.00000
      3     -27.3320      2.00000
      4     -27.2480      2.00000
      5     -27.1429      2.00000
      6     -27.1397      2.00000
      7       2.5753      2.00000
      8       4.1367      2.00000
      9       4.6658      2.00000
     10       4.8428      2.00000
     11       6.0201      0.00000
     12       6.4041      0.00000
     13       6.5907      0.00000
     14       7.7554      0.00000
     15       8.4959      0.00000
     16       8.6908      0.00000

 k-point  16 :      -0.2000    0.2000    0.2000
  band No.  band energies     occupation 
      1     -27.5938      2.00000
      2     -27.2553      2.00000
      3     -27.2273      2.00000
      4     -27.1459      2.00000
      5     -27.1089      2.00000
      6     -27.0546      2.00000
      7       0.9459      2.00000
      8       3.6441      2.00000
      9       4.8950      2.00000
     10       5.6548      0.03686
     11       6.3008      0.00000
     12       6.6754      0.00000
     13       6.7844      0.00000
     14       7.3116      0.00000
     15       7.6177      0.00000
     16       7.6759      0.00000

 k-point  17 :       0.4000    0.4000    0.2000
  band No.  band energies     occupation 
      1     -27.5504      2.00000
      2     -27.4717      2.00000
      3     -27.3804      2.00000
      4     -27.2636      2.00000
      5     -27.2495      2.00000
      6     -27.1779      2.00000
      7       3.7125      2.00000
      8       4.1871      2.00000
      9       4.5589      2.00000
     10       4.6764      2.00000
     11       5.8355      0.00000
     12       6.1470      0.00000
     13       7.0265      0.00000
     14       8.4378      0.00000
     15       8.6374      0.00000
     16       9.0030      0.00000

 k-point  18 :      -0.4000    0.4000    0.2000
  band No.  band energies     occupation 
      1     -27.5803      2.00000
      2     -27.4749      2.00000
      3     -27.3720      2.00000
      4     -27.2181      2.00000
      5     -27.1820      2.00000
      6     -27.1017      2.00000
      7       2.8764      2.00000
      8       3.7614      2.00000
      9       4.3345      2.00000
     10       5.0257      2.00000
     11       6.4830      0.00000
     12       6.5007      0.00000
     13       6.7455      0.00000
     14       8.5566      0.00000
     15       8.7575      0.00000
     16       8.8225      0.00000

 k-point  19 :       0.0000    0.0000    0.4000
  band No.  band energies     occupation 
      1     -27.4952      2.00000
      2     -27.3004      2.00000
      3     -27.0767      2.00000
      4     -27.0761      2.00000
      5     -27.0503      2.00000
      6     -27.0495      2.00000
      7       0.8117      2.00000
      8       1.9876      2.00000
      9       5.6245      1.97184
     10       5.9197      0.00000
     11       6.3269      0.00000
     12       6.3961      0.00000
     13       6.4964      0.00000
     14       6.5566      0.00000
     15       8.1604      0.00000
     16       8.2012      0.00000

 k-point  20 :       0.2000   -0.0000    0.4000
  band No.  band energies     occupation 
      1     -27.4942      2.00000
      2     -27.3624      2.00000
      3     -27.1909      2.00000
      4     -27.1377      2.00000
      5     -27.1157      2.00000
      6     -27.0818      2.00000
      7       1.7116      2.00000
      8       2.7799      2.00000
      9       5.0743      2.00000
     10       5.5983      2.00000
     11       5.9768      0.00000
     12       6.3437      0.00000
     13       6.8647      0.00000
     14       7.0932      0.00000
     15       8.1297      0.00000
     16       8.2988      0.00000

 k-point  21 :       0.4000   -0.0000    0.4000
  band No.  band energies     occupation 
      1     -27.5956      2.00000
      2     -27.5514      2.00000
      3     -27.2587      2.00000
      4     -27.1924      2.00000
      5     -27.1769      2.00000
      6     -27.1340      2.00000
      7       3.0229      2.00000
      8       3.3983      2.00000
      9       4.7555      2.00000
     10       5.0721      2.00000
     11       6.4412      0.00000
     12       6.8001      0.00000
     13       7.0757      0.00000
     14       7.8292      0.00000
     15       8.8523      0.00000
     16       8.8772      0.00000

 k-point  22 :       0.2000    0.2000    0.4000
  band No.  band energies     occupation 
      1     -27.5318      2.00000
      2     -27.4820      2.00000
      3     -27.2486      2.00000
      4     -27.2474      2.00000
      5     -27.1619      2.00000
      6     -27.1391      2.00000
      7       3.0086      2.00000
      8       3.6206      2.00000
      9       5.0151      2.00000
     10       5.1177      2.00000
     11       5.7764      0.00000
     12       5.9185      0.00000
     13       6.9415      0.00000
     14       7.5193      0.00000
     15       8.6081      0.00000
     16       8.9591      0.00000

 k-point  23 :       0.4000    0.2000    0.4000
  band No.  band energies     occupation 
      1     -27.5737      2.00000
      2     -27.5460      2.00000
      3     -27.3370      2.00000
      4     -27.2842      2.00000
      5     -27.1834      2.00000
      6     -27.1549      2.00000
      7       3.7318      2.00000
      8       3.9818      2.00000
      9       4.9164      2.00000
     10       5.2855      2.00000
     11       5.4493      2.00000
     12       5.8981      0.00000
     13       7.2595      0.00000
     14       7.7122      0.00000
     15       8.7496      0.00000
     16       8.9755      0.00000

 k-point  24 :      -0.4000    0.2000    0.4000
  band No.  band energies     occupation 
      1     -27.5344      2.00000
      2     -27.4867      2.00000
      3     -27.2558      2.00000
      4     -27.2484      2.00000
      5     -27.1579      2.00000
      6     -27.1388      2.00000
      7       3.0205      2.00000
      8       3.6188      2.00000
      9       5.0212      2.00000
     10       5.1204      2.00000
     11       5.7953      0.00000
     12       5.9437      0.00000
     13       6.9228      0.00000
     14       7.5125      0.00000
     15       8.5961      0.00000
     16       8.9714      0.00000

 k-point  25 :      -0.2000    0.2000    0.4000
  band No.  band energies     occupation 
      1     -27.4932      2.00000
      2     -27.3617      2.00000
      3     -27.1937      2.00000
      4     -27.1407      2.00000
      5     -27.1178      2.00000
      6     -27.0829      2.00000
      7       1.7202      2.00000
      8       2.7857      2.00000
      9       5.0844      2.00000
     10       5.6225      1.98665
     11       6.0040      0.00000
     12       6.3732      0.00000
     13       6.8281      0.00000
     14       7.0592      0.00000
     15       8.0975      0.00000
     16       8.3094      0.00000

 k-point  26 :       0.4000    0.4000    0.4000
  band No.  band energies     occupation 
      1     -27.5768      2.00000
      2     -27.5478      2.00000
      3     -27.3401      2.00000
      4     -27.2866      2.00000
      5     -27.1848      2.00000
      6     -27.1544      2.00000
      7       3.7337      2.00000
      8       3.9917      2.00000
      9       4.9060      2.00000
     10       5.2807      2.00000
     11       5.4432      2.00000
     12       5.9332      0.00000
     13       7.2701      0.00000
     14       7.7136      0.00000
     15       8.7441      0.00000
     16       8.9687      0.00000

 k-point  27 :      -0.4000    0.4000    0.4000
  band No.  band energies     occupation 
      1     -27.5976      2.00000
      2     -27.5530      2.00000
      3     -27.2628      2.00000
      4     -27.1938      2.00000
      5     -27.1824      2.00000
      6     -27.1379      2.00000
      7       3.0368      2.00000
      8       3.4124      2.00000
      9       4.7547      2.00000
     10       5.0700      2.00000
     11       6.4823      0.00000
     12       6.8538      0.00000
     13       7.0364      0.00000
     14       7.8033      0.00000
     15       8.8542      0.00000
     16       8.8791      0.00000


--------------------------------------------------------------------------------------------------------


 soft charge-density along one line, spin component           1
         0         1         2         3         4         5         6         7         8         9
 total charge-density along one line
 
 pseudopotential strength for first ion, spin component:           1
-29.159  -0.000   0.002  13.069   0.000  -0.001   0.001  -0.000
 -0.000 -29.208   0.000   0.000  13.105  -0.000   0.000  -0.000
  0.002   0.000 -29.160  -0.001  -0.000  13.070   0.004   0.000
 13.069   0.000  -0.001  -0.911  -0.000   0.001  -0.000   0.000
  0.000  13.105  -0.000  -0.000  -0.934   0.000  -0.000   0.000
 -0.001  -0.000  13.070   0.001   0.000  -0.911  -0.002  -0.000
  0.001   0.000   0.004  -0.000  -0.000  -0.002  -2.972   0.000
 -0.000  -0.000   0.000   0.000   0.000  -0.000   0.000  -2.994
  0.000  -0.000  -0.000  -0.000   0.000   0.000  -0.001  -0.000
  0.000   0.001  -0.000  -0.000  -0.000   0.000  -0.000   0.001
  0.005   0.000   0.001  -0.003  -0.000  -0.000  -0.000   0.000
  0.000   0.000   0.001  -0.000  -0.000  -0.001   0.506   0.000
 -0.000  -0.000   0.000   0.000   0.000  -0.000   0.000   0.502
  0.000  -0.000  -0.000  -0.000   0.000   0.000  -0.000  -0.000
  0.000   0.000  -0.000  -0.000  -0.000   0.000  -0.000   0.000
  0.001   0.000   0.000  -0.001  -0.000  -0.000   0.000   0.000
  0.000   0.000  -0.000  -0.000  -0.000   0.000  -0.000   0.000
 -0.000  -0.000   0.000   0.000   0.000  -0.000   0.000  -0.000
 total augmentation occupancy for first ion, spin component:           1
  1.970  -0.000   0.003  -0.020  -0.000   0.012  -0.003  -0.001  -0.011   0.005  -0.010   0.001   0.000   0.004  -0.003   0.004
 -0.000   1.975   0.000  -0.000  -0.002   0.001   0.001  -0.010   0.001  -0.006  -0.005  -0.001   0.004  -0.000   0.002   0.002
  0.003   0.000   1.981   0.012   0.001   0.021  -0.020  -0.009  -0.006   0.002  -0.003   0.008   0.004   0.002  -0.000   0.001
 -0.020  -0.000   0.012   0.123  -0.001   0.033  -0.013  -0.005  -0.049   0.022  -0.039   0.004   0.002   0.016  -0.012   0.011
 -0.000  -0.002   0.001  -0.001   0.163   0.003   0.005  -0.044   0.003  -0.026  -0.024  -0.003   0.016  -0.002   0.009   0.009
  0.012   0.001   0.021   0.033   0.003   0.235  -0.088  -0.040  -0.026   0.010  -0.013   0.025   0.017   0.009  -0.001   0.004
 -0.003   0.001  -0.020  -0.013   0.005  -0.088   0.838   0.026   0.052  -0.015   0.157  -0.367  -0.012  -0.018   0.001  -0.063
 -0.001  -0.010  -0.009  -0.005  -0.044  -0.040   0.026   0.285   0.012   0.105  -0.002  -0.013  -0.133  -0.004  -0.056   0.001
 -0.011   0.001  -0.006  -0.049   0.003  -0.026   0.052   0.012   0.646   0.005   0.097  -0.019  -0.004  -0.269   0.001  -0.035
  0.005  -0.006   0.002   0.022  -0.026   0.010  -0.015   0.105   0.005   0.652  -0.022   0.002  -0.056   0.001  -0.332   0.013
 -0.010  -0.005  -0.003  -0.039  -0.024  -0.013   0.157  -0.002   0.097  -0.022   0.348  -0.063   0.001  -0.033   0.013  -0.155
  0.001  -0.001   0.008   0.004  -0.003   0.025  -0.367  -0.013  -0.019   0.002  -0.063   0.188   0.006   0.005   0.003   0.031
  0.000   0.004   0.004   0.002   0.016   0.017  -0.012  -0.133  -0.004  -0.056   0.001   0.006   0.072  -0.001   0.033  -0.000
  0.004  -0.000   0.002   0.016  -0.002   0.009  -0.018  -0.004  -0.269   0.001  -0.033   0.005  -0.001   0.132  -0.002   0.010
 -0.003   0.002  -0.000  -0.012   0.009  -0.001   0.001  -0.056   0.001  -0.332   0.013   0.003   0.033  -0.002   0.189  -0.008
  0.004   0.002   0.001   0.011   0.009   0.004  -0.063   0.001  -0.035   0.013  -0.155   0.031  -0.000   0.010  -0.008   0.082
 -0.001  -0.002  -0.000  -0.006  -0.009  -0.001  -0.150   0.009   0.030   0.016  -0.261   0.109   0.009  -0.014  -0.004   0.187
  0.000   0.000  -0.001  -0.001   0.000  -0.000   0.004   0.001   0.011   0.000   0.009  -0.003  -0.001  -0.004  -0.000  -0.006


------------------------ aborting loop because EDIFF is reached ----------------------------------------




--------------------------------------------------------------------------------------------------------


    CHARGE:  VPU time    0.04: CPU time    0.04
    FORLOC:  VPU time    0.00: CPU time    0.00
    FORNL :  VPU time    0.06: CPU time    0.06
    STRESS:  VPU time    0.26: CPU time    0.26
    FORCOR:  VPU time    0.05: CPU time    0.05
    FORHAR:  VPU time    0.01: CPU time    0.01
    MIXING:  VPU time    0.00: CPU time    0.00


--------------------------------------------------------------------------------------------------------



  FREE ENERGIE OF THE ION-ELECTRON SYSTEM (eV)
  ---------------------------------------------------
  free  energy   TOTEN  =       -15.774306 eV

  energy  without entropy=      -15.774262  energy(sigma->0) =      -15.774284
 

  FORCE on cell =-STRESS in cart. coord.  units (eV/reduce length):
  Direction    X        Y        Z        XY       YZ       ZX
  --------------------------------------------------------------------------------------
  Alpha Z    122.47    122.47    122.47
  Ewald     -533.88   -534.66   -524.00     -0.68     -0.00     -0.00
  Hartree    131.84    131.54    135.47     -0.26     -0.00     -0.00
  E(xc)      -94.04    -94.04    -94.02     -0.00     -0.00      0.00
  Local      133.44    134.40    122.32      0.83     -0.00     -0.00
  n-local    -52.11    -44.64    -47.68     -2.15      0.14      0.24
  augment    102.14    102.19    100.85      0.04     -0.00     -0.00
  Kinetic    188.38    183.53    183.48      1.59     -0.27      0.38
  -------------------------------------------------------------------------------------
  Total       -0.54     -0.45     -1.12      0.08      0.00      0.00
  in kB      -24.24    -20.11    -50.42      3.58      0.00      0.00
  external pressure =      -31.59 kB  Pullay stress =        0.00 kB


 VOLUME and BASIS-vectors are now :
 -----------------------------------------------------------------------------
  energy-cutoff  :      500.00
  volume of cell :       35.62
      direct lattice vectors                 reciprocal lattice vectors
     2.940222367  0.008255147  0.000000000     0.339563460  0.194777930  0.000000000
    -1.462961957  2.550434870  0.000000000    -0.001099086  0.391459547  0.000000000
     0.000000000  0.000000000  4.741849350     0.000000000  0.000000000  0.210888184

  length of vectors
     2.940233955  2.940233956  4.741849350     0.391461090  0.391461090  0.210888184


 FORCES acting on ions
    electron-ion (+dipol)            ewald-force                    non-local-force                 convergence-correction
 -----------------------------------------------------------------------------------------------
   0.146E+00 -.843E-01 -.209E-11   -.109E+00 0.630E-01 -.185E-13   -.432E-01 0.249E-01 0.260E-17   -.631E-06 0.364E-06 -.194E-13
   -.146E+00 0.843E-01 0.301E-11   0.109E+00 -.630E-01 0.185E-13   0.432E-01 -.249E-01 -.867E-18   0.631E-06 -.364E-06 -.212E-14
 -----------------------------------------------------------------------------------------------
   0.371E-12 0.164E-12 0.923E-12   0.139E-14 -.824E-14 0.000E+00   -.416E-16 -.278E-16 0.173E-17   0.173E-13 0.112E-13 -.215E-13
 
 
 POSITION                                       TOTAL-FORCE (eV/Angst)
 -----------------------------------------------------------------------------------
     -0.00009      1.70585      1.18546        -0.006320      0.003649     -0.000000
      1.47735      0.85284      3.55639         0.006320     -0.003649      0.000000
 -----------------------------------------------------------------------------------
    total drift:                                0.000000      0.000000      0.000000


--------------------------------------------------------------------------------------------------------



 mean value of Nose-termostat <S>:     1.000 mean value of <T> :     0.000
 mean temperature <T/S>/<1/S>  :     0.000

     LOOP+:  VPU time   11.32: CPU time   11.35
  
  
 General timing and accounting informations for this job:
 ========================================================
  
                  Total CPU time used (sec):       11.693
                            User time (sec):        8.730
                          System time (sec):        2.964
                         Elapsed time (sec):       11.713
  
                   Maximum memory used (kb):       75524.
                   Average memory used (kb):           0.
  
                          Minor page faults:        15776
                          Major page faults:            0
                 Voluntary context switches:          861
