  36  36   0   0
  0.1728916E+02  0.8820702E-09  0.8820702E-09  0.9207475E-09  0.5000000E-15
  1.000000000000000E-004
  CAR 
 unknown system                          
      8.81543345    -29.23020474  301      5.96111149      1.00000000
    -29.230  0.0000E+00  0.0000E+00
    -29.103  0.0000E+00  0.0000E+00
    -28.977  0.0000E+00  0.0000E+00
    -28.850  0.0000E+00  0.0000E+00
    -28.723  0.0000E+00  0.0000E+00
    -28.596  0.0000E+00  0.0000E+00
    -28.469  0.0000E+00  0.0000E+00
    -28.342  0.0000E+00  0.0000E+00
    -28.216  0.0000E+00  0.0000E+00
    -28.089  0.0000E+00  0.0000E+00
    -27.962  0.0000E+00  0.0000E+00
    -27.835  0.0000E+00  0.0000E+00
    -27.708  0.0000E+00  0.0000E+00
    -27.582  0.0000E+00  0.0000E+00
    -27.455  0.5102E+01  0.6470E+00
    -27.328  0.1132E+03  0.1645E+02
    -27.201  0.1353E+03  0.5112E+02
    -27.074  0.1357E+03  0.7754E+02
    -26.947  0.2364E+03  0.1181E+03
    -26.821  0.3966E+03  0.1918E+03
    -26.694  0.4899E+02  0.2160E+03
    -26.567  0.0000E+00  0.2160E+03
    -26.440  0.0000E+00  0.2160E+03
    -26.313  0.0000E+00  0.2160E+03
    -26.187  0.0000E+00  0.2160E+03
    -26.060  0.0000E+00  0.2160E+03
    -25.933  0.0000E+00  0.2160E+03
    -25.806  0.0000E+00  0.2160E+03
    -25.679  0.0000E+00  0.2160E+03
    -25.552  0.0000E+00  0.2160E+03
    -25.426  0.0000E+00  0.2160E+03
    -25.299  0.0000E+00  0.2160E+03
    -25.172  0.0000E+00  0.2160E+03
    -25.045  0.0000E+00  0.2160E+03
    -24.918  0.0000E+00  0.2160E+03
    -24.792  0.0000E+00  0.2160E+03
    -24.665  0.0000E+00  0.2160E+03
    -24.538  0.0000E+00  0.2160E+03
    -24.411  0.0000E+00  0.2160E+03
    -24.284  0.0000E+00  0.2160E+03
    -24.157  0.0000E+00  0.2160E+03
    -24.031  0.0000E+00  0.2160E+03
    -23.904  0.0000E+00  0.2160E+03
    -23.777  0.0000E+00  0.2160E+03
    -23.650  0.0000E+00  0.2160E+03
    -23.523  0.0000E+00  0.2160E+03
    -23.397  0.0000E+00  0.2160E+03
    -23.270  0.0000E+00  0.2160E+03
    -23.143  0.0000E+00  0.2160E+03
    -23.016  0.0000E+00  0.2160E+03
    -22.889  0.0000E+00  0.2160E+03
    -22.762  0.0000E+00  0.2160E+03
    -22.636  0.0000E+00  0.2160E+03
    -22.509  0.0000E+00  0.2160E+03
    -22.382  0.0000E+00  0.2160E+03
    -22.255  0.0000E+00  0.2160E+03
    -22.128  0.0000E+00  0.2160E+03
    -22.002  0.0000E+00  0.2160E+03
    -21.875  0.0000E+00  0.2160E+03
    -21.748  0.0000E+00  0.2160E+03
    -21.621  0.0000E+00  0.2160E+03
    -21.494  0.0000E+00  0.2160E+03
    -21.367  0.0000E+00  0.2160E+03
    -21.241  0.0000E+00  0.2160E+03
    -21.114  0.0000E+00  0.2160E+03
    -20.987  0.0000E+00  0.2160E+03
    -20.860  0.0000E+00  0.2160E+03
    -20.733  0.0000E+00  0.2160E+03
    -20.607  0.0000E+00  0.2160E+03
    -20.480  0.0000E+00  0.2160E+03
    -20.353  0.0000E+00  0.2160E+03
    -20.226  0.0000E+00  0.2160E+03
    -20.099  0.0000E+00  0.2160E+03
    -19.972  0.0000E+00  0.2160E+03
    -19.846  0.0000E+00  0.2160E+03
    -19.719  0.0000E+00  0.2160E+03
    -19.592  0.0000E+00  0.2160E+03
    -19.465  0.0000E+00  0.2160E+03
    -19.338  0.0000E+00  0.2160E+03
    -19.212  0.0000E+00  0.2160E+03
    -19.085  0.0000E+00  0.2160E+03
    -18.958  0.0000E+00  0.2160E+03
    -18.831  0.0000E+00  0.2160E+03
    -18.704  0.0000E+00  0.2160E+03
    -18.577  0.0000E+00  0.2160E+03
    -18.451  0.0000E+00  0.2160E+03
    -18.324  0.0000E+00  0.2160E+03
    -18.197  0.0000E+00  0.2160E+03
    -18.070  0.0000E+00  0.2160E+03
    -17.943  0.0000E+00  0.2160E+03
    -17.817  0.0000E+00  0.2160E+03
    -17.690  0.0000E+00  0.2160E+03
    -17.563  0.0000E+00  0.2160E+03
    -17.436  0.0000E+00  0.2160E+03
    -17.309  0.0000E+00  0.2160E+03
    -17.182  0.0000E+00  0.2160E+03
    -17.056  0.0000E+00  0.2160E+03
    -16.929  0.0000E+00  0.2160E+03
    -16.802  0.0000E+00  0.2160E+03
    -16.675  0.0000E+00  0.2160E+03
    -16.548  0.0000E+00  0.2160E+03
    -16.422  0.0000E+00  0.2160E+03
    -16.295  0.0000E+00  0.2160E+03
    -16.168  0.0000E+00  0.2160E+03
    -16.041  0.0000E+00  0.2160E+03
    -15.914  0.0000E+00  0.2160E+03
    -15.787  0.0000E+00  0.2160E+03
    -15.661  0.0000E+00  0.2160E+03
    -15.534  0.0000E+00  0.2160E+03
    -15.407  0.0000E+00  0.2160E+03
    -15.280  0.0000E+00  0.2160E+03
    -15.153  0.0000E+00  0.2160E+03
    -15.026  0.0000E+00  0.2160E+03
    -14.900  0.0000E+00  0.2160E+03
    -14.773  0.0000E+00  0.2160E+03
    -14.646  0.0000E+00  0.2160E+03
    -14.519  0.0000E+00  0.2160E+03
    -14.392  0.0000E+00  0.2160E+03
    -14.266  0.0000E+00  0.2160E+03
    -14.139  0.0000E+00  0.2160E+03
    -14.012  0.0000E+00  0.2160E+03
    -13.885  0.0000E+00  0.2160E+03
    -13.758  0.0000E+00  0.2160E+03
    -13.631  0.0000E+00  0.2160E+03
    -13.505  0.0000E+00  0.2160E+03
    -13.378  0.0000E+00  0.2160E+03
    -13.251  0.0000E+00  0.2160E+03
    -13.124  0.0000E+00  0.2160E+03
    -12.997  0.0000E+00  0.2160E+03
    -12.871  0.0000E+00  0.2160E+03
    -12.744  0.0000E+00  0.2160E+03
    -12.617  0.0000E+00  0.2160E+03
    -12.490  0.0000E+00  0.2160E+03
    -12.363  0.0000E+00  0.2160E+03
    -12.236  0.0000E+00  0.2160E+03
    -12.110  0.0000E+00  0.2160E+03
    -11.983  0.0000E+00  0.2160E+03
    -11.856  0.0000E+00  0.2160E+03
    -11.729  0.0000E+00  0.2160E+03
    -11.602  0.0000E+00  0.2160E+03
    -11.476  0.0000E+00  0.2160E+03
    -11.349  0.0000E+00  0.2160E+03
    -11.222  0.0000E+00  0.2160E+03
    -11.095  0.0000E+00  0.2160E+03
    -10.968  0.0000E+00  0.2160E+03
    -10.841  0.0000E+00  0.2160E+03
    -10.715  0.0000E+00  0.2160E+03
    -10.588  0.0000E+00  0.2160E+03
    -10.461  0.0000E+00  0.2160E+03
    -10.334  0.0000E+00  0.2160E+03
    -10.207  0.0000E+00  0.2160E+03
    -10.081  0.0000E+00  0.2160E+03
     -9.954  0.0000E+00  0.2160E+03
     -9.827  0.0000E+00  0.2160E+03
     -9.700  0.0000E+00  0.2160E+03
     -9.573  0.0000E+00  0.2160E+03
     -9.446  0.0000E+00  0.2160E+03
     -9.320  0.0000E+00  0.2160E+03
     -9.193  0.0000E+00  0.2160E+03
     -9.066  0.0000E+00  0.2160E+03
     -8.939  0.0000E+00  0.2160E+03
     -8.812  0.0000E+00  0.2160E+03
     -8.686  0.0000E+00  0.2160E+03
     -8.559  0.0000E+00  0.2160E+03
     -8.432  0.0000E+00  0.2160E+03
     -8.305  0.0000E+00  0.2160E+03
     -8.178  0.0000E+00  0.2160E+03
     -8.051  0.0000E+00  0.2160E+03
     -7.925  0.0000E+00  0.2160E+03
     -7.798  0.0000E+00  0.2160E+03
     -7.671  0.0000E+00  0.2160E+03
     -7.544  0.0000E+00  0.2160E+03
     -7.417  0.0000E+00  0.2160E+03
     -7.291  0.0000E+00  0.2160E+03
     -7.164  0.0000E+00  0.2160E+03
     -7.037  0.0000E+00  0.2160E+03
     -6.910  0.0000E+00  0.2160E+03
     -6.783  0.0000E+00  0.2160E+03
     -6.656  0.0000E+00  0.2160E+03
     -6.530  0.0000E+00  0.2160E+03
     -6.403  0.0000E+00  0.2160E+03
     -6.276  0.0000E+00  0.2160E+03
     -6.149  0.0000E+00  0.2160E+03
     -6.022  0.0000E+00  0.2160E+03
     -5.896  0.0000E+00  0.2160E+03
     -5.769  0.0000E+00  0.2160E+03
     -5.642  0.0000E+00  0.2160E+03
     -5.515  0.0000E+00  0.2160E+03
     -5.388  0.0000E+00  0.2160E+03
     -5.261  0.0000E+00  0.2160E+03
     -5.135  0.0000E+00  0.2160E+03
     -5.008  0.0000E+00  0.2160E+03
     -4.881  0.0000E+00  0.2160E+03
     -4.754  0.0000E+00  0.2160E+03
     -4.627  0.0000E+00  0.2160E+03
     -4.501  0.0000E+00  0.2160E+03
     -4.374  0.0000E+00  0.2160E+03
     -4.247  0.0000E+00  0.2160E+03
     -4.120  0.0000E+00  0.2160E+03
     -3.993  0.0000E+00  0.2160E+03
     -3.866  0.0000E+00  0.2160E+03
     -3.740  0.0000E+00  0.2160E+03
     -3.613  0.0000E+00  0.2160E+03
     -3.486  0.0000E+00  0.2160E+03
     -3.359  0.0000E+00  0.2160E+03
     -3.232  0.0000E+00  0.2160E+03
     -3.106  0.0000E+00  0.2160E+03
     -2.979  0.0000E+00  0.2160E+03
     -2.852  0.0000E+00  0.2160E+03
     -2.725  0.0000E+00  0.2160E+03
     -2.598  0.0000E+00  0.2160E+03
     -2.471  0.0000E+00  0.2160E+03
     -2.345  0.0000E+00  0.2160E+03
     -2.218  0.0000E+00  0.2160E+03
     -2.091  0.0000E+00  0.2160E+03
     -1.964  0.0000E+00  0.2160E+03
     -1.837  0.0000E+00  0.2160E+03
     -1.711  0.0000E+00  0.2160E+03
     -1.584  0.0000E+00  0.2160E+03
     -1.457  0.0000E+00  0.2160E+03
     -1.330  0.0000E+00  0.2160E+03
     -1.203  0.0000E+00  0.2160E+03
     -1.076  0.0000E+00  0.2160E+03
     -0.950  0.0000E+00  0.2160E+03
     -0.823  0.0000E+00  0.2160E+03
     -0.696  0.0000E+00  0.2160E+03
     -0.569  0.0000E+00  0.2160E+03
     -0.442  0.0000E+00  0.2160E+03
     -0.316  0.0000E+00  0.2160E+03
     -0.189  0.6433E-01  0.2160E+03
     -0.062  0.5048E+00  0.2161E+03
      0.065  0.8397E+00  0.2163E+03
      0.192  0.1285E+01  0.2165E+03
      0.319  0.2018E+01  0.2169E+03
      0.445  0.1538E+01  0.2172E+03
      0.572  0.2124E+01  0.2175E+03
      0.699  0.2333E+01  0.2181E+03
      0.826  0.1427E+01  0.2183E+03
      0.953  0.3793E+01  0.2190E+03
      1.079  0.3465E+01  0.2195E+03
      1.206  0.2913E+00  0.2198E+03
      1.333  0.4660E+01  0.2208E+03
      1.460  0.3796E+01  0.2214E+03
      1.587  0.3839E+01  0.2220E+03
      1.714  0.3929E+01  0.2228E+03
      1.840  0.3167E+01  0.2235E+03
      1.967  0.4111E+01  0.2244E+03
      2.094  0.4506E+01  0.2254E+03
      2.221  0.3090E+01  0.2264E+03
      2.348  0.5988E+01  0.2272E+03
      2.474  0.7399E+01  0.2287E+03
      2.601  0.6746E+01  0.2300E+03
      2.728  0.4238E+01  0.2312E+03
      2.855  0.7123E+01  0.2328E+03
      2.982  0.9134E+01  0.2347E+03
      3.109  0.1279E+02  0.2369E+03
      3.235  0.1251E+02  0.2397E+03
      3.362  0.1683E+02  0.2427E+03
      3.489  0.2511E+02  0.2485E+03
      3.616  0.2494E+02  0.2524E+03
      3.743  0.2174E+02  0.2566E+03
      3.870  0.2412E+02  0.2610E+03
      3.996  0.1921E+02  0.2666E+03
      4.123  0.3199E+02  0.2725E+03
      4.250  0.3838E+02  0.2793E+03
      4.377  0.3335E+02  0.2870E+03
      4.504  0.1809E+02  0.2914E+03
      4.630  0.2568E+02  0.2968E+03
      4.757  0.2161E+02  0.3015E+03
      4.884  0.2931E+02  0.3085E+03
      5.011  0.2827E+02  0.3143E+03
      5.138  0.4236E+02  0.3229E+03
      5.265  0.3781E+02  0.3310E+03
      5.391  0.5224E+02  0.3405E+03
      5.518  0.2724E+02  0.3473E+03
      5.645  0.1771E+02  0.3508E+03
      5.772  0.2172E+02  0.3545E+03
      5.899  0.1066E+02  0.3572E+03
      6.025  0.2263E+02  0.3623E+03
      6.152  0.4747E+02  0.3701E+03
      6.279  0.5173E+02  0.3801E+03
      6.406  0.5556E+02  0.3907E+03
      6.533  0.4207E+02  0.3992E+03
      6.660  0.4818E+02  0.4085E+03
      6.786  0.6698E+02  0.4201E+03
      6.913  0.4341E+02  0.4294E+03
      7.040  0.4764E+01  0.4319E+03
      7.167  0.0000E+00  0.4320E+03
      7.294  0.0000E+00  0.4320E+03
      7.420  0.0000E+00  0.4320E+03
      7.547  0.0000E+00  0.4320E+03
      7.674  0.0000E+00  0.4320E+03
      7.801  0.0000E+00  0.4320E+03
      7.928  0.0000E+00  0.4320E+03
      8.055  0.0000E+00  0.4320E+03
      8.181  0.0000E+00  0.4320E+03
      8.308  0.0000E+00  0.4320E+03
      8.435  0.0000E+00  0.4320E+03
      8.562  0.0000E+00  0.4320E+03
      8.689  0.0000E+00  0.4320E+03
      8.815  0.0000E+00  0.4320E+03
