   36   36    1    1
  0.1728916E+02  0.8820702E-09  0.8820702E-09  0.9207474E-09  0.5000000E-15
  1.000000000000000E-004
  CAR 
 unknown system                          
  360  123  216
 
  0.0000000E+00  0.0000000E+00  0.0000000E+00  0.4081633E-02
   1      -27.5009
   2      -27.3028
   3      -27.3026
   4      -27.3026
   5      -27.3024
   6      -27.2969
   7      -27.2966
   8      -27.2965
   9      -27.2962
  10      -27.2961
  11      -27.2961
  12      -27.2941
  13      -27.2941
  14      -27.2940
  15      -27.2940
  16      -27.2940
  17      -27.2938
  18      -27.2938
  19      -27.2936
  20      -27.2910
  21      -27.2910
  22      -27.2908
  23      -27.2907
  24      -27.2176
  25      -27.2172
  26      -27.1840
  27      -27.1838
  28      -27.1829
  29      -27.1828
  30      -27.1827
  31      -27.1825
  32      -27.1426
  33      -27.1420
  34      -27.1012
  35      -27.1008
  36      -27.0992
  37      -27.0989
  38      -27.0967
  39      -27.0963
  40      -27.0963
  41      -27.0959
  42      -27.0655
  43      -27.0654
  44      -27.0653
  45      -27.0652
  46      -27.0648
  47      -27.0647
  48      -27.0645
  49      -27.0638
  50      -27.0602
  51      -27.0599
  52      -26.9728
  53      -26.9724
  54      -26.9541
  55      -26.9541
  56      -26.9439
  57      -26.9437
  58      -26.9437
  59      -26.9436
  60      -26.9183
  61      -26.9181
  62      -26.9180
  63      -26.9178
  64      -26.9163
  65      -26.9163
  66      -26.9159
  67      -26.9159
  68      -26.9158
  69      -26.9157
  70      -26.9156
  71      -26.9152
  72      -26.8770
  73      -26.8766
  74      -26.8765
  75      -26.8761
  76      -26.8735
  77      -26.8731
  78      -26.8693
  79      -26.8690
  80      -26.8689
  81      -26.8688
  82      -26.8605
  83      -26.8605
  84      -26.8604
  85      -26.8603
  86      -26.8602
  87      -26.8602
  88      -26.8601
  89      -26.8598
  90      -26.8543
  91      -26.8542
  92      -26.8542
  93      -26.8541
  94      -26.8436
  95      -26.8340
  96      -26.7878
  97      -26.7877
  98      -26.7827
  99      -26.7826
 100      -26.7809
 101      -26.7808
 102      -26.7758
 103      -26.7757
 104      -26.7756
 105      -26.7754
 106      -26.7650
 107      -26.7315
 108      -26.7274
 109       -0.2115
 110        1.6772
 111        1.6774
 112        2.3382
 113        2.3385
 114        2.3387
 115        2.3389
 116        2.3552
 117        2.3555
 118        3.2430
 119        3.2433
 120        3.2436
 121        3.2436
 122        3.2437
 123        3.2439
 124        3.2441
 125        3.2442
 126        3.2569
 127        3.2575
 128        3.2576
 129        3.2577
 130        3.2737
 131        4.1932
 132        4.1939
 133        4.2010
 134        4.2015
 135        4.2017
 136        4.2021
 137        4.2274
 138        4.2290
 139        4.5192
 140        4.5194
 141        4.5274
 142        4.5284
 143        4.5307
 144        4.5309
 145        4.5495
 146        4.5508
 147        4.5509
 148        4.5512
 149        4.6340
 150        4.6342
 151        4.6902
 152        4.6912
 153        4.6919
 154        4.6930
 155        4.8668
 156        4.8682
 157        4.8682
 158        4.8695
 159        5.2764
 160        5.2789
 161        5.2793
 162        5.2794
 163        5.2796
 164        5.2798
 165        5.2800
 166        5.2804
 167        5.2816
 168        5.2819
 169        5.2820
 170        5.2843
 171        5.3005
 172        5.3012
 173        5.3013
 174        5.3024
 175        5.3286
 176        5.3302
 177        5.7366
 178        5.7367
 179        5.7368
 180        5.7369
 181        6.0798
 182        6.0826
 183        6.1602
 184        6.1613
 185        6.2134
 186        6.2151
 187        6.5306
 188        6.5311
 189        6.5315
 190        6.5318
 191        6.5321
 192        6.5326
 193        6.5329
 194        6.5337
 195        6.5508
 196        6.5516
 197        6.5562
 198        6.5563
 199        6.5703
 200        6.5717
 201        6.5722
 202        6.5731
 203        6.6031
 204        6.6039
 205        6.6043
 206        6.6044
 207        6.6167
 208        6.6168
 209        6.6582
 210        6.7515
 211        6.7901
 212        6.7911
 213        6.7948
 214        6.7954
 215        6.7978
 216        6.8491
 
  0.1428571E+00 -0.1387779E-16  0.0000000E+00  0.8163265E-02
   1      -27.4958
   2      -27.3419
   3      -27.3324
   4      -27.3323
   5      -27.3165
   6      -27.3161
   7      -27.3127
   8      -27.3126
   9      -27.3102
  10      -27.3101
  11      -27.3080
  12      -27.3079
  13      -27.3077
  14      -27.3076
  15      -27.2732
  16      -27.2731
  17      -27.2716
  18      -27.2708
  19      -27.2701
  20      -27.2699
  21      -27.2521
  22      -27.2518
  23      -27.2517
  24      -27.2365
  25      -27.2237
  26      -27.2209
  27      -27.2111
  28      -27.2085
  29      -27.1513
  30      -27.1508
  31      -27.1443
  32      -27.1437
  33      -27.1189
  34      -27.1138
  35      -27.1132
  36      -27.1100
  37      -27.1003
  38      -27.0971
  39      -27.0928
  40      -27.0916
  41      -27.0862
  42      -27.0861
  43      -27.0858
  44      -27.0855
  45      -27.0839
  46      -27.0836
  47      -27.0436
  48      -27.0425
  49      -27.0291
  50      -27.0250
  51      -27.0065
  52      -26.9648
  53      -26.9594
  54      -26.9582
  55      -26.9577
  56      -26.9553
  57      -26.9438
  58      -26.9346
  59      -26.9278
  60      -26.9277
  61      -26.9249
  62      -26.9241
  63      -26.9239
  64      -26.9200
  65      -26.9198
  66      -26.9188
  67      -26.9186
  68      -26.9168
  69      -26.9167
  70      -26.9071
  71      -26.9070
  72      -26.9061
  73      -26.8935
  74      -26.8896
  75      -26.8731
  76      -26.8730
  77      -26.8722
  78      -26.8720
  79      -26.8656
  80      -26.8654
  81      -26.8636
  82      -26.8613
  83      -26.8612
  84      -26.8610
  85      -26.8553
  86      -26.8553
  87      -26.8547
  88      -26.8547
  89      -26.8538
  90      -26.8536
  91      -26.8523
  92      -26.8482
  93      -26.8461
  94      -26.8459
  95      -26.8386
  96      -26.7939
  97      -26.7937
  98      -26.7932
  99      -26.7864
 100      -26.7841
 101      -26.7840
 102      -26.7837
 103      -26.7832
 104      -26.7768
 105      -26.7673
 106      -26.7661
 107      -26.7413
 108      -26.7293
 109       -0.1480
 110        1.7309
 111        1.7312
 112        1.7834
 113        2.1056
 114        2.1187
 115        2.6409
 116        2.6599
 117        2.8540
 118        3.0442
 119        3.0444
 120        3.1892
 121        3.1894
 122        3.2010
 123        3.2012
 124        3.3230
 125        3.3411
 126        3.3414
 127        3.3500
 128        3.3503
 129        3.3551
 130        3.3554
 131        4.0857
 132        4.1700
 133        4.1789
 134        4.2238
 135        4.2322
 136        4.2400
 137        4.2613
 138        4.2698
 139        4.3393
 140        4.3731
 141        4.3834
 142        4.4142
 143        4.4397
 144        4.4566
 145        4.4572
 146        4.4591
 147        4.4598
 148        4.5338
 149        4.5636
 150        4.6542
 151        4.6614
 152        4.6726
 153        4.6842
 154        4.8256
 155        5.0973
 156        5.0979
 157        5.1049
 158        5.1056
 159        5.2253
 160        5.2264
 161        5.2489
 162        5.2629
 163        5.2635
 164        5.2640
 165        5.2647
 166        5.2676
 167        5.2740
 168        5.2932
 169        5.3176
 170        5.3187
 171        5.3210
 172        5.3218
 173        5.3224
 174        5.3438
 175        5.3450
 176        5.3797
 177        5.7250
 178        5.7252
 179        5.7280
 180        5.7282
 181        6.0235
 182        6.0261
 183        6.1020
 184        6.1471
 185        6.2673
 186        6.3152
 187        6.3897
 188        6.3903
 189        6.3905
 190        6.3911
 191        6.4222
 192        6.4228
 193        6.4487
 194        6.4923
 195        6.4938
 196        6.5431
 197        6.5608
 198        6.5628
 199        6.5634
 200        6.5671
 201        6.5673
 202        6.5927
 203        6.6040
 204        6.6045
 205        6.6443
 206        6.6444
 207        6.7019
 208        6.7036
 209        6.7252
 210        6.7361
 211        6.7427
 212        6.7715
 213        6.7764
 214        6.7810
 215        6.7893
 216        6.7898
 
  0.2857143E+00 -0.2775558E-16  0.0000000E+00  0.8163265E-02
   1      -27.4808
   2      -27.3854
   3      -27.3614
   4      -27.3613
   5      -27.3301
   6      -27.3299
   7      -27.3258
   8      -27.3257
   9      -27.3240
  10      -27.3239
  11      -27.3191
  12      -27.3190
  13      -27.3186
  14      -27.3186
  15      -27.2752
  16      -27.2548
  17      -27.2546
  18      -27.2523
  19      -27.2522
  20      -27.2421
  21      -27.2408
  22      -27.2340
  23      -27.2302
  24      -27.2296
  25      -27.2264
  26      -27.2142
  27      -27.2128
  28      -27.2126
  29      -27.1500
  30      -27.1494
  31      -27.1483
  32      -27.1372
  33      -27.1345
  34      -27.1273
  35      -27.1231
  36      -27.1170
  37      -27.1167
  38      -27.1152
  39      -27.1138
  40      -27.0614
  41      -27.0602
  42      -27.0581
  43      -27.0578
  44      -27.0539
  45      -27.0537
  46      -27.0506
  47      -27.0389
  48      -27.0382
  49      -26.9962
  50      -26.9918
  51      -26.9814
  52      -26.9737
  53      -26.9705
  54      -26.9511
  55      -26.9510
  56      -26.9456
  57      -26.9455
  58      -26.9421
  59      -26.9335
  60      -26.9263
  61      -26.9245
  62      -26.9230
  63      -26.9227
  64      -26.9225
  65      -26.9213
  66      -26.9213
  67      -26.9210
  68      -26.9209
  69      -26.9206
  70      -26.9141
  71      -26.9098
  72      -26.9043
  73      -26.8911
  74      -26.8910
  75      -26.8808
  76      -26.8805
  77      -26.8805
  78      -26.8712
  79      -26.8711
  80      -26.8660
  81      -26.8659
  82      -26.8579
  83      -26.8579
  84      -26.8567
  85      -26.8566
  86      -26.8547
  87      -26.8545
  88      -26.8544
  89      -26.8531
  90      -26.8497
  91      -26.8496
  92      -26.8494
  93      -26.8308
  94      -26.8306
  95      -26.8232
  96      -26.8152
  97      -26.8123
  98      -26.8122
  99      -26.8092
 100      -26.7923
 101      -26.7915
 102      -26.7913
 103      -26.7898
 104      -26.7874
 105      -26.7743
 106      -26.7717
 107      -26.7561
 108      -26.7331
 109        0.0400
 110        1.2409
 111        1.8875
 112        1.8877
 113        1.9487
 114        1.9571
 115        2.7598
 116        2.7599
 117        2.9996
 118        3.0193
 119        3.1675
 120        3.1676
 121        3.1755
 122        3.1756
 123        3.2731
 124        3.3922
 125        3.3926
 126        3.4651
 127        3.4862
 128        3.4865
 129        3.4986
 130        3.4989
 131        3.9504
 132        4.1288
 133        4.1404
 134        4.1448
 135        4.1718
 136        4.1724
 137        4.1736
 138        4.1742
 139        4.1910
 140        4.1964
 141        4.2026
 142        4.2231
 143        4.2387
 144        4.3254
 145        4.3515
 146        4.3579
 147        4.3665
 148        4.4337
 149        4.4604
 150        4.7701
 151        4.7759
 152        4.7822
 153        4.7949
 154        5.1517
 155        5.1589
 156        5.1734
 157        5.1830
 158        5.1841
 159        5.2315
 160        5.2549
 161        5.2628
 162        5.2778
 163        5.2788
 164        5.2820
 165        5.2830
 166        5.3359
 167        5.3364
 168        5.3370
 169        5.3379
 170        5.3591
 171        5.3599
 172        5.3615
 173        5.3627
 174        5.4354
 175        5.4368
 176        5.5363
 177        5.7489
 178        5.7495
 179        5.7556
 180        5.7560
 181        5.8879
 182        5.8901
 183        6.0900
 184        6.1320
 185        6.2396
 186        6.2401
 187        6.2611
 188        6.2616
 189        6.3112
 190        6.3193
 191        6.3561
 192        6.3750
 193        6.3753
 194        6.3770
 195        6.3965
 196        6.4174
 197        6.4403
 198        6.4409
 199        6.4434
 200        6.4765
 201        6.4770
 202        6.5054
 203        6.5193
 204        6.5620
 205        6.5621
 206        6.6414
 207        6.7070
 208        6.7125
 209        6.7331
 210        6.7363
 211        6.7365
 212        6.7396
 213        6.7753
 214        6.9008
 215        6.9032
 216        6.9700
 
  0.4285714E+00  0.0000000E+00  0.0000000E+00  0.8163265E-02
   1      -27.4566
   2      -27.4243
   3      -27.3769
   4      -27.3768
   5      -27.3371
   6      -27.3369
   7      -27.3312
   8      -27.3311
   9      -27.3301
  10      -27.3300
  11      -27.3284
  12      -27.3283
  13      -27.3277
  14      -27.3276
  15      -27.2955
  16      -27.2434
  17      -27.2432
  18      -27.2425
  19      -27.2423
  20      -27.2408
  21      -27.2401
  22      -27.2359
  23      -27.2354
  24      -27.2091
  25      -27.2074
  26      -27.1909
  27      -27.1822
  28      -27.1818
  29      -27.1738
  30      -27.1716
  31      -27.1662
  32      -27.1618
  33      -27.1613
  34      -27.1348
  35      -27.1314
  36      -27.1303
  37      -27.1274
  38      -27.0839
  39      -27.0815
  40      -27.0545
  41      -27.0523
  42      -27.0326
  43      -27.0292
  44      -27.0215
  45      -27.0212
  46      -27.0161
  47      -27.0158
  48      -27.0046
  49      -26.9991
  50      -26.9844
  51      -26.9840
  52      -26.9838
  53      -26.9780
  54      -26.9778
  55      -26.9762
  56      -26.9658
  57      -26.9612
  58      -26.9512
  59      -26.9383
  60      -26.9338
  61      -26.9260
  62      -26.9252
  63      -26.9250
  64      -26.9244
  65      -26.9243
  66      -26.9216
  67      -26.9215
  68      -26.9080
  69      -26.9066
  70      -26.8852
  71      -26.8850
  72      -26.8847
  73      -26.8837
  74      -26.8817
  75      -26.8775
  76      -26.8674
  77      -26.8673
  78      -26.8666
  79      -26.8665
  80      -26.8648
  81      -26.8633
  82      -26.8632
  83      -26.8619
  84      -26.8618
  85      -26.8597
  86      -26.8597
  87      -26.8505
  88      -26.8504
  89      -26.8500
  90      -26.8493
  91      -26.8487
  92      -26.8487
  93      -26.8467
  94      -26.8420
  95      -26.8390
  96      -26.8389
  97      -26.8188
  98      -26.8157
  99      -26.8155
 100      -26.8023
 101      -26.8023
 102      -26.8021
 103      -26.8020
 104      -26.8002
 105      -26.7930
 106      -26.7860
 107      -26.7468
 108      -26.7389
 109        0.3444
 110        0.7516
 111        1.8712
 112        1.8741
 113        2.1321
 114        2.1323
 115        2.4371
 116        2.4373
 117        3.1637
 118        3.1638
 119        3.1666
 120        3.1667
 121        3.3928
 122        3.4039
 123        3.4043
 124        3.4121
 125        3.5553
 126        3.6770
 127        3.6773
 128        3.6795
 129        3.6865
 130        3.6868
 131        3.7858
 132        3.8038
 133        3.8158
 134        3.9079
 135        3.9083
 136        3.9137
 137        3.9141
 138        3.9267
 139        4.1242
 140        4.2341
 141        4.2489
 142        4.2552
 143        4.2648
 144        4.2660
 145        4.2907
 146        4.3329
 147        4.3544
 148        4.4413
 149        4.4457
 150        4.8440
 151        4.8483
 152        4.9008
 153        4.9193
 154        5.0300
 155        5.0492
 156        5.1592
 157        5.1604
 158        5.1673
 159        5.1772
 160        5.2728
 161        5.3236
 162        5.3245
 163        5.3321
 164        5.3330
 165        5.3752
 166        5.3761
 167        5.3833
 168        5.3840
 169        5.3846
 170        5.3854
 171        5.3856
 172        5.3869
 173        5.5414
 174        5.5649
 175        5.5664
 176        5.7234
 177        5.7253
 178        5.7706
 179        5.9379
 180        5.9382
 181        5.9577
 182        5.9602
 183        5.9604
 184        6.0425
 185        6.1262
 186        6.1552
 187        6.1556
 188        6.1631
 189        6.1635
 190        6.1649
 191        6.2058
 192        6.2083
 193        6.2087
 194        6.2380
 195        6.2384
 196        6.2421
 197        6.3784
 198        6.4356
 199        6.4359
 200        6.4578
 201        6.4618
 202        6.5125
 203        6.5126
 204        6.5327
 205        6.5769
 206        6.6096
 207        6.6517
 208        6.6936
 209        6.7064
 210        6.7188
 211        6.8097
 212        6.8868
 213        6.8870
 214        6.9456
 215        7.0807
 216        7.0857
 
 -0.1084202E-18  0.1428571E+00  0.0000000E+00  0.8163265E-02
   1      -27.4958
   2      -27.3418
   3      -27.3325
   4      -27.3324
   5      -27.3165
   6      -27.3162
   7      -27.3126
   8      -27.3126
   9      -27.3102
  10      -27.3101
  11      -27.3080
  12      -27.3079
  13      -27.3077
  14      -27.3076
  15      -27.2732
  16      -27.2730
  17      -27.2716
  18      -27.2709
  19      -27.2701
  20      -27.2699
  21      -27.2520
  22      -27.2519
  23      -27.2518
  24      -27.2365
  25      -27.2237
  26      -27.2209
  27      -27.2111
  28      -27.2084
  29      -27.1513
  30      -27.1508
  31      -27.1443
  32      -27.1437
  33      -27.1189
  34      -27.1138
  35      -27.1132
  36      -27.1100
  37      -27.1003
  38      -27.0972
  39      -27.0928
  40      -27.0916
  41      -27.0862
  42      -27.0861
  43      -27.0858
  44      -27.0855
  45      -27.0839
  46      -27.0836
  47      -27.0437
  48      -27.0425
  49      -27.0290
  50      -27.0250
  51      -27.0065
  52      -26.9647
  53      -26.9593
  54      -26.9582
  55      -26.9577
  56      -26.9554
  57      -26.9438
  58      -26.9346
  59      -26.9278
  60      -26.9276
  61      -26.9249
  62      -26.9241
  63      -26.9240
  64      -26.9199
  65      -26.9198
  66      -26.9188
  67      -26.9186
  68      -26.9169
  69      -26.9167
  70      -26.9071
  71      -26.9069
  72      -26.9062
  73      -26.8934
  74      -26.8896
  75      -26.8732
  76      -26.8730
  77      -26.8722
  78      -26.8720
  79      -26.8656
  80      -26.8654
  81      -26.8635
  82      -26.8613
  83      -26.8612
  84      -26.8609
  85      -26.8553
  86      -26.8553
  87      -26.8547
  88      -26.8547
  89      -26.8538
  90      -26.8536
  91      -26.8524
  92      -26.8482
  93      -26.8461
  94      -26.8459
  95      -26.8386
  96      -26.7939
  97      -26.7937
  98      -26.7932
  99      -26.7864
 100      -26.7841
 101      -26.7840
 102      -26.7838
 103      -26.7832
 104      -26.7768
 105      -26.7673
 106      -26.7661
 107      -26.7413
 108      -26.7294
 109       -0.1480
 110        1.7309
 111        1.7312
 112        1.7834
 113        2.1056
 114        2.1187
 115        2.6408
 116        2.6599
 117        2.8541
 118        3.0442
 119        3.0444
 120        3.1892
 121        3.1894
 122        3.2010
 123        3.2012
 124        3.3230
 125        3.3412
 126        3.3415
 127        3.3499
 128        3.3502
 129        3.3551
 130        3.3554
 131        4.0859
 132        4.1700
 133        4.1787
 134        4.2239
 135        4.2321
 136        4.2402
 137        4.2613
 138        4.2696
 139        4.3398
 140        4.3730
 141        4.3834
 142        4.4143
 143        4.4392
 144        4.4564
 145        4.4571
 146        4.4593
 147        4.4600
 148        4.5338
 149        4.5635
 150        4.6541
 151        4.6614
 152        4.6721
 153        4.6842
 154        4.8260
 155        5.0972
 156        5.0979
 157        5.1048
 158        5.1055
 159        5.2255
 160        5.2266
 161        5.2490
 162        5.2625
 163        5.2636
 164        5.2637
 165        5.2647
 166        5.2675
 167        5.2740
 168        5.2933
 169        5.3174
 170        5.3185
 171        5.3211
 172        5.3220
 173        5.3224
 174        5.3439
 175        5.3451
 176        5.3796
 177        5.7251
 178        5.7253
 179        5.7279
 180        5.7282
 181        6.0235
 182        6.0261
 183        6.1020
 184        6.1469
 185        6.2676
 186        6.3151
 187        6.3899
 188        6.3903
 189        6.3905
 190        6.3910
 191        6.4222
 192        6.4228
 193        6.4486
 194        6.4921
 195        6.4940
 196        6.5430
 197        6.5609
 198        6.5632
 199        6.5637
 200        6.5672
 201        6.5674
 202        6.5929
 203        6.6040
 204        6.6046
 205        6.6443
 206        6.6444
 207        6.7014
 208        6.7030
 209        6.7253
 210        6.7363
 211        6.7424
 212        6.7698
 213        6.7751
 214        6.7792
 215        6.7888
 216        6.7893
 
  0.1428571E+00  0.1428571E+00  0.0000000E+00  0.8163265E-02
   1      -27.4858
   2      -27.3610
   3      -27.3609
   4      -27.3461
   5      -27.3461
   6      -27.3460
   7      -27.3459
   8      -27.3195
   9      -27.3195
  10      -27.3116
  11      -27.3115
  12      -27.2900
  13      -27.2899
  14      -27.2897
  15      -27.2896
  16      -27.2856
  17      -27.2853
  18      -27.2549
  19      -27.2549
  20      -27.2396
  21      -27.2328
  22      -27.2326
  23      -27.2326
  24      -27.2323
  25      -27.2290
  26      -27.2289
  27      -27.2172
  28      -27.1778
  29      -27.1775
  30      -27.1481
  31      -27.1475
  32      -27.1314
  33      -27.1312
  34      -27.1302
  35      -27.1291
  36      -27.1215
  37      -27.1120
  38      -27.0852
  39      -27.0852
  40      -27.0836
  41      -27.0811
  42      -27.0811
  43      -27.0655
  44      -27.0652
  45      -27.0650
  46      -27.0647
  47      -27.0561
  48      -27.0054
  49      -26.9997
  50      -26.9869
  51      -26.9867
  52      -26.9704
  53      -26.9703
  54      -26.9568
  55      -26.9567
  56      -26.9395
  57      -26.9388
  58      -26.9387
  59      -26.9385
  60      -26.9384
  61      -26.9300
  62      -26.9294
  63      -26.9291
  64      -26.9290
  65      -26.9289
  66      -26.9229
  67      -26.9225
  68      -26.9108
  69      -26.9107
  70      -26.9037
  71      -26.9035
  72      -26.9034
  73      -26.9033
  74      -26.8810
  75      -26.8806
  76      -26.8739
  77      -26.8738
  78      -26.8737
  79      -26.8736
  80      -26.8714
  81      -26.8648
  82      -26.8646
  83      -26.8645
  84      -26.8644
  85      -26.8576
  86      -26.8576
  87      -26.8557
  88      -26.8557
  89      -26.8459
  90      -26.8401
  91      -26.8400
  92      -26.8399
  93      -26.8397
  94      -26.8369
  95      -26.8365
  96      -26.8069
  97      -26.8068
  98      -26.8048
  99      -26.8047
 100      -26.7939
 101      -26.7938
 102      -26.7882
 103      -26.7880
 104      -26.7720
 105      -26.7666
 106      -26.7664
 107      -26.7610
 108      -26.7319
 109       -0.0228
 110        1.5516
 111        1.5520
 112        1.8357
 113        1.8360
 114        2.5092
 115        2.5094
 116        2.9428
 117        2.9430
 118        2.9432
 119        2.9433
 120        3.1138
 121        3.1142
 122        3.3821
 123        3.3826
 124        3.3827
 125        3.3829
 126        3.4126
 127        3.4130
 128        3.4132
 129        3.4133
 130        3.4185
 131        4.0490
 132        4.0492
 133        4.1710
 134        4.2065
 135        4.2164
 136        4.2169
 137        4.2417
 138        4.2422
 139        4.2489
 140        4.2523
 141        4.2647
 142        4.2655
 143        4.2842
 144        4.2847
 145        4.3134
 146        4.3141
 147        4.4010
 148        4.5188
 149        4.5198
 150        4.5846
 151        4.6659
 152        4.8149
 153        4.9686
 154        4.9694
 155        5.1864
 156        5.1878
 157        5.2185
 158        5.2194
 159        5.2200
 160        5.2204
 161        5.2346
 162        5.2348
 163        5.2432
 164        5.2442
 165        5.3149
 166        5.3151
 167        5.3155
 168        5.3169
 169        5.3197
 170        5.3209
 171        5.3864
 172        5.3876
 173        5.3879
 174        5.3890
 175        5.4083
 176        5.4091
 177        5.7325
 178        5.7332
 179        5.7403
 180        5.7404
 181        5.9264
 182        5.9287
 183        6.1040
 184        6.1105
 185        6.3297
 186        6.3309
 187        6.3315
 188        6.3320
 189        6.3349
 190        6.3352
 191        6.3357
 192        6.3362
 193        6.3641
 194        6.3838
 195        6.3894
 196        6.3944
 197        6.3955
 198        6.4183
 199        6.4188
 200        6.4859
 201        6.5580
 202        6.5580
 203        6.6721
 204        6.6732
 205        6.6923
 206        6.6933
 207        6.7164
 208        6.7164
 209        6.7271
 210        6.7285
 211        6.8021
 212        6.8025
 213        6.8028
 214        6.8031
 215        6.8440
 216        6.8474
 
  0.2857143E+00  0.1428571E+00  0.0000000E+00  0.8163265E-02
   1      -27.4662
   2      -27.4022
   3      -27.3727
   4      -27.3681
   5      -27.3681
   6      -27.3515
   7      -27.3515
   8      -27.3351
   9      -27.3351
  10      -27.3148
  11      -27.3148
  12      -27.3049
  13      -27.3048
  14      -27.2940
  15      -27.2847
  16      -27.2744
  17      -27.2743
  18      -27.2638
  19      -27.2566
  20      -27.2501
  21      -27.2187
  22      -27.2185
  23      -27.2119
  24      -27.2028
  25      -27.1978
  26      -27.1974
  27      -27.1973
  28      -27.1970
  29      -27.1701
  30      -27.1569
  31      -27.1566
  32      -27.1563
  33      -27.1488
  34      -27.1426
  35      -27.1407
  36      -27.1365
  37      -27.1302
  38      -27.1135
  39      -27.0879
  40      -27.0546
  41      -27.0523
  42      -27.0340
  43      -27.0337
  44      -27.0316
  45      -27.0314
  46      -27.0261
  47      -27.0180
  48      -26.9907
  49      -26.9898
  50      -26.9815
  51      -26.9796
  52      -26.9757
  53      -26.9680
  54      -26.9678
  55      -26.9669
  56      -26.9539
  57      -26.9537
  58      -26.9478
  59      -26.9476
  60      -26.9463
  61      -26.9420
  62      -26.9419
  63      -26.9321
  64      -26.9321
  65      -26.9313
  66      -26.9074
  67      -26.9060
  68      -26.9046
  69      -26.9020
  70      -26.9018
  71      -26.8917
  72      -26.8898
  73      -26.8831
  74      -26.8831
  75      -26.8817
  76      -26.8786
  77      -26.8784
  78      -26.8756
  79      -26.8697
  80      -26.8696
  81      -26.8642
  82      -26.8641
  83      -26.8633
  84      -26.8617
  85      -26.8617
  86      -26.8591
  87      -26.8590
  88      -26.8576
  89      -26.8575
  90      -26.8376
  91      -26.8375
  92      -26.8352
  93      -26.8296
  94      -26.8289
  95      -26.8288
  96      -26.8254
  97      -26.8252
  98      -26.8201
  99      -26.8161
 100      -26.8137
 101      -26.7986
 102      -26.7975
 103      -26.7974
 104      -26.7955
 105      -26.7814
 106      -26.7751
 107      -26.7563
 108      -26.7383
 109        0.2230
 110        1.0328
 111        1.4117
 112        2.0365
 113        2.0367
 114        2.4180
 115        2.6335
 116        2.6336
 117        2.8847
 118        2.8848
 119        2.9512
 120        3.4152
 121        3.4195
 122        3.4196
 123        3.4376
 124        3.4380
 125        3.4679
 126        3.5358
 127        3.5362
 128        3.5924
 129        3.5926
 130        3.5975
 131        3.8231
 132        3.9148
 133        3.9550
 134        3.9555
 135        4.0322
 136        4.0540
 137        4.0543
 138        4.0711
 139        4.0745
 140        4.1585
 141        4.1864
 142        4.2192
 143        4.2463
 144        4.2578
 145        4.2907
 146        4.3838
 147        4.4096
 148        4.4820
 149        4.5447
 150        4.6046
 151        4.7448
 152        4.9498
 153        5.0321
 154        5.0523
 155        5.0785
 156        5.1567
 157        5.1877
 158        5.1889
 159        5.2411
 160        5.2535
 161        5.2546
 162        5.3169
 163        5.3387
 164        5.3394
 165        5.3552
 166        5.3558
 167        5.3686
 168        5.3695
 169        5.3773
 170        5.3785
 171        5.4016
 172        5.4254
 173        5.4266
 174        5.4912
 175        5.4926
 176        5.6131
 177        5.7799
 178        5.7819
 179        5.7876
 180        5.7881
 181        5.9486
 182        5.9489
 183        6.1122
 184        6.1165
 185        6.1254
 186        6.1295
 187        6.1298
 188        6.1357
 189        6.1682
 190        6.1686
 191        6.2478
 192        6.2760
 193        6.2763
 194        6.3241
 195        6.3308
 196        6.3733
 197        6.3784
 198        6.3788
 199        6.4913
 200        6.5215
 201        6.5216
 202        6.5322
 203        6.5879
 204        6.5885
 205        6.6125
 206        6.6243
 207        6.6602
 208        6.7099
 209        6.7507
 210        6.7916
 211        6.8253
 212        6.8411
 213        6.8413
 214        6.8851
 215        6.9450
 216        6.9883
 
  0.4285714E+00  0.1428571E+00  0.0000000E+00  0.8163265E-02
   1      -27.4379
   2      -27.4378
   3      -27.3766
   4      -27.3759
   5      -27.3759
   6      -27.3479
   7      -27.3479
   8      -27.3465
   9      -27.3465
  10      -27.3137
  11      -27.3136
  12      -27.3134
  13      -27.3133
  14      -27.2968
  15      -27.2951
  16      -27.2692
  17      -27.2691
  18      -27.2671
  19      -27.2627
  20      -27.2131
  21      -27.2128
  22      -27.2117
  23      -27.2104
  24      -27.2100
  25      -27.2046
  26      -27.1848
  27      -27.1772
  28      -27.1747
  29      -27.1729
  30      -27.1725