       N       E                     dE             d eps       ncg     rms          rms(c)
DAV:   1     0.499357903421E+04    0.49936E+04   -0.17188E+05 53832   0.181E+03
DAV:   2     0.910999811298E+02   -0.49025E+04   -0.48264E+04 53136   0.639E+02
DAV:   3    -0.292087833388E+03   -0.38319E+03   -0.36043E+03 77584   0.162E+02
DAV:   4    -0.323540515910E+03   -0.31453E+02   -0.30573E+02 72704   0.404E+01
DAV:   5    -0.324469265472E+03   -0.92875E+00   -0.90806E+00 69536   0.623E+00    0.358E+01
DAV:   6    -0.286116062794E+03    0.38353E+02   -0.11924E+02 57960   0.371E+01    0.911E+00
DAV:   7    -0.284203530176E+03    0.19125E+01   -0.15469E+01 70120   0.116E+01    0.353E+00
DAV:   8    -0.284289200774E+03   -0.85671E-01   -0.28327E+00 70688   0.681E+00    0.385E+00
DAV:   9    -0.284109023514E+03    0.18018E+00   -0.10255E+00 74744   0.460E+00    0.174E+00
DAV:  10    -0.284045692556E+03    0.63331E-01   -0.15918E-01 71296   0.146E+00    0.987E-01
DAV:  11    -0.284016515748E+03    0.29177E-01   -0.20888E-01 62880   0.157E+00    0.247E-01
DAV:  12    -0.284017276599E+03   -0.76085E-03   -0.98327E-03 71856   0.367E-01    0.260E-01
DAV:  13    -0.284015977658E+03    0.12989E-02   -0.39442E-03 67576   0.232E-01    0.102E-01
DAV:  14    -0.284015800164E+03    0.17749E-03   -0.65565E-04 71120   0.113E-01    0.533E-02
DAV:  15    -0.284015755682E+03    0.44482E-04   -0.12550E-04 72744   0.540E-02    0.348E-02
DAV:  16    -0.284015735671E+03    0.20011E-04   -0.40766E-05 73456   0.301E-02    0.254E-02
DAV:  17    -0.284015700512E+03    0.35159E-04   -0.31723E-05 68400   0.208E-02    0.118E-02
DAV:  18    -0.284015687814E+03    0.12698E-04   -0.74696E-06 71800   0.119E-02    0.509E-03
DAV:  19    -0.284015679639E+03    0.81749E-05   -0.19594E-06 71864   0.569E-03    0.194E-03
DAV:  20    -0.284015677620E+03    0.20189E-05   -0.40489E-07 73624   0.288E-03    0.540E-04
DAV:  21    -0.284015677340E+03    0.28074E-06   -0.65761E-08 53496   0.108E-03    0.468E-04
DAV:  22    -0.284015677397E+03   -0.57022E-07   -0.14070E-08 37968   0.733E-04    0.266E-04
DAV:  23    -0.284015677830E+03   -0.43355E-06   -0.98239E-09 36080   0.384E-04    0.125E-04
DAV:  24    -0.284015677906E+03   -0.76157E-07   -0.37930E-09 34368   0.285E-04    0.934E-05
DAV:  25    -0.284015677964E+03   -0.57516E-07   -0.14914E-09 33896   0.179E-04    0.593E-05
DAV:  26    -0.284015677980E+03   -0.16618E-07   -0.74169E-10 33424   0.940E-05    0.511E-05
DAV:  27    -0.284015677997E+03   -0.16327E-07   -0.36148E-10 33104   0.734E-05    0.420E-05
DAV:  28    -0.284015678006E+03   -0.91968E-08   -0.16444E-10 32896   0.411E-05
   1 F= -.28401568E+03 E0= -.28401465E+03  d E =-.205747E-02
