<?xml version="1.0" encoding="ISO-8859-1"?>
<modeling>
 <generator>
  <i name="program" type="string">vasp</i>
  <i name="version" type="string">4.6.28 </i>
  <i name="subversion" type="string">25Jul05 complex  parallel</i>
  <i name="platform" type="string">LinuxIFC</i>
  <i name="date" type="string">2016 11 16</i>
  <i name="time" type="string">11:18:06</i>
 </generator>
 <incar>
  <i type="string" name="PREC">accurate</i>
  <i type="int" name="IALGO">    38</i>
  <i name="EDIFF">      0.00000001</i>
  <i type="int" name="IBRION">    -1</i>
  <i name="ENCUT">    500.00000000</i>
  <i type="logical" name="LREAL"> F  </i>
  <i type="int" name="ISMEAR">     0</i>
  <i name="SIGMA">      0.01000000</i>
  <i type="logical" name="LWAVE"> F  </i>
  <i type="logical" name="LCHARG"> F  </i>
 </incar>
 <kpoints>
  <generation param="Auto">
   <i name="subdivisionlength">     50.00000000</i>
   <v type="int" name="divisions">       7       7       5</v>
   <v name="usershift">      0.00000000      0.00000000      0.00000000</v>
   <v name="genvec1">      0.14285714     -0.00000000      0.00000000</v>
   <v name="genvec2">      0.00000000      0.14285714      0.00000000</v>
   <v name="genvec3">      0.00000000      0.00000000      0.20000000</v>
   <v name="shift">      0.00000000      0.00000000      0.00000000</v>
  </generation>
  <varray name="kpointlist" >
   <v>       0.00000000      0.00000000      0.00000000</v>
   <v>       0.14285714     -0.00000000      0.00000000</v>
   <v>       0.28571429     -0.00000000      0.00000000</v>
   <v>       0.42857143      0.00000000      0.00000000</v>
   <v>      -0.00000000      0.14285714      0.00000000</v>
   <v>       0.14285714      0.14285714      0.00000000</v>
   <v>       0.28571429      0.14285714      0.00000000</v>
   <v>       0.42857143      0.14285714      0.00000000</v>
   <v>      -0.42857143      0.14285714      0.00000000</v>
   <v>      -0.28571429      0.14285714      0.00000000</v>
   <v>      -0.14285714      0.14285714      0.00000000</v>
   <v>      -0.00000000      0.28571429      0.00000000</v>
   <v>       0.14285714      0.28571429      0.00000000</v>
   <v>       0.28571429      0.28571429      0.00000000</v>
   <v>       0.42857143      0.28571429      0.00000000</v>
   <v>      -0.42857143      0.28571429      0.00000000</v>
   <v>      -0.28571429      0.28571429      0.00000000</v>
   <v>      -0.14285714      0.28571429      0.00000000</v>
   <v>       0.00000000      0.42857143      0.00000000</v>
   <v>       0.14285714      0.42857143      0.00000000</v>
   <v>       0.28571429      0.42857143      0.00000000</v>
   <v>       0.42857143      0.42857143      0.00000000</v>
   <v>      -0.42857143      0.42857143      0.00000000</v>
   <v>      -0.28571429      0.42857143      0.00000000</v>
   <v>      -0.14285714      0.42857143      0.00000000</v>
   <v>       0.00000000      0.00000000      0.20000000</v>
   <v>       0.14285714     -0.00000000      0.20000000</v>
   <v>       0.28571429     -0.00000000      0.20000000</v>
   <v>       0.42857143      0.00000000      0.20000000</v>
   <v>      -0.42857143      0.00000000      0.20000000</v>
   <v>      -0.28571429      0.00000000      0.20000000</v>
   <v>      -0.14285714      0.00000000      0.20000000</v>
   <v>      -0.00000000      0.14285714      0.20000000</v>
   <v>       0.14285714      0.14285714      0.20000000</v>
   <v>       0.28571429      0.14285714      0.20000000</v>
   <v>       0.42857143      0.14285714      0.20000000</v>
   <v>      -0.42857143      0.14285714      0.20000000</v>
   <v>      -0.28571429      0.14285714      0.20000000</v>
   <v>      -0.14285714      0.14285714      0.20000000</v>
   <v>      -0.00000000      0.28571429      0.20000000</v>
   <v>       0.14285714      0.28571429      0.20000000</v>
   <v>       0.28571429      0.28571429      0.20000000</v>
   <v>       0.42857143      0.28571429      0.20000000</v>
   <v>      -0.42857143      0.28571429      0.20000000</v>
   <v>      -0.28571429      0.28571429      0.20000000</v>
   <v>      -0.14285714      0.28571429      0.20000000</v>
   <v>       0.00000000      0.42857143      0.20000000</v>
   <v>       0.14285714      0.42857143      0.20000000</v>
   <v>       0.28571429      0.42857143      0.20000000</v>
   <v>       0.42857143      0.42857143      0.20000000</v>
   <v>      -0.42857143      0.42857143      0.20000000</v>
   <v>      -0.28571429      0.42857143      0.20000000</v>
   <v>      -0.14285714      0.42857143      0.20000000</v>
   <v>       0.00000000     -0.42857143      0.20000000</v>
   <v>       0.14285714     -0.42857143      0.20000000</v>
   <v>       0.28571429     -0.42857143      0.20000000</v>
   <v>       0.42857143     -0.42857143      0.20000000</v>
   <v>      -0.42857143     -0.42857143      0.20000000</v>
   <v>      -0.28571429     -0.42857143      0.20000000</v>
   <v>      -0.14285714     -0.42857143      0.20000000</v>
   <v>       0.00000000     -0.28571429      0.20000000</v>
   <v>       0.14285714     -0.28571429      0.20000000</v>
   <v>       0.28571429     -0.28571429      0.20000000</v>
   <v>       0.42857143     -0.28571429      0.20000000</v>
   <v>      -0.42857143     -0.28571429      0.20000000</v>
   <v>      -0.28571429     -0.28571429      0.20000000</v>
   <v>      -0.14285714     -0.28571429      0.20000000</v>
   <v>       0.00000000     -0.14285714      0.20000000</v>
   <v>       0.14285714     -0.14285714      0.20000000</v>
   <v>       0.28571429     -0.14285714      0.20000000</v>
   <v>       0.42857143     -0.14285714      0.20000000</v>
   <v>      -0.42857143     -0.14285714      0.20000000</v>
   <v>      -0.28571429     -0.14285714      0.20000000</v>
   <v>      -0.14285714     -0.14285714      0.20000000</v>
   <v>       0.00000000      0.00000000      0.40000000</v>
   <v>       0.14285714     -0.00000000      0.40000000</v>
   <v>       0.28571429     -0.00000000      0.40000000</v>
   <v>       0.42857143      0.00000000      0.40000000</v>
   <v>      -0.42857143      0.00000000      0.40000000</v>
   <v>      -0.28571429      0.00000000      0.40000000</v>
   <v>      -0.14285714      0.00000000      0.40000000</v>
   <v>      -0.00000000      0.14285714      0.40000000</v>
   <v>       0.14285714      0.14285714      0.40000000</v>
   <v>       0.28571429      0.14285714      0.40000000</v>
   <v>       0.42857143      0.14285714      0.40000000</v>
   <v>      -0.42857143      0.14285714      0.40000000</v>
   <v>      -0.28571429      0.14285714      0.40000000</v>
   <v>      -0.14285714      0.14285714      0.40000000</v>
   <v>      -0.00000000      0.28571429      0.40000000</v>
   <v>       0.14285714      0.28571429      0.40000000</v>
   <v>       0.28571429      0.28571429      0.40000000</v>
   <v>       0.42857143      0.28571429      0.40000000</v>
   <v>      -0.42857143      0.28571429      0.40000000</v>
   <v>      -0.28571429      0.28571429      0.40000000</v>
   <v>      -0.14285714      0.28571429      0.40000000</v>
   <v>       0.00000000      0.42857143      0.40000000</v>
   <v>       0.14285714      0.42857143      0.40000000</v>
   <v>       0.28571429      0.42857143      0.40000000</v>
   <v>       0.42857143      0.42857143      0.40000000</v>
   <v>      -0.42857143      0.42857143      0.40000000</v>
   <v>      -0.28571429      0.42857143      0.40000000</v>
   <v>      -0.14285714      0.42857143      0.40000000</v>
   <v>       0.00000000     -0.42857143      0.40000000</v>
   <v>       0.14285714     -0.42857143      0.40000000</v>
   <v>       0.28571429     -0.42857143      0.40000000</v>
   <v>       0.42857143     -0.42857143      0.40000000</v>
   <v>      -0.42857143     -0.42857143      0.40000000</v>
   <v>      -0.28571429     -0.42857143      0.40000000</v>
   <v>      -0.14285714     -0.42857143      0.40000000</v>
   <v>       0.00000000     -0.28571429      0.40000000</v>
   <v>       0.14285714     -0.28571429      0.40000000</v>
   <v>       0.28571429     -0.28571429      0.40000000</v>
   <v>       0.42857143     -0.28571429      0.40000000</v>
   <v>      -0.42857143     -0.28571429      0.40000000</v>
   <v>      -0.28571429     -0.28571429      0.40000000</v>
   <v>      -0.14285714     -0.28571429      0.40000000</v>
   <v>       0.00000000     -0.14285714      0.40000000</v>
   <v>       0.14285714     -0.14285714      0.40000000</v>
   <v>       0.28571429     -0.14285714      0.40000000</v>
   <v>       0.42857143     -0.14285714      0.40000000</v>
   <v>      -0.42857143     -0.14285714      0.40000000</v>
   <v>      -0.28571429     -0.14285714      0.40000000</v>
   <v>      -0.14285714     -0.14285714      0.40000000</v>
  </varray>
  <varray name="weights" >
   <v>       0.00408163</v>
   <v>       0.00816327</v>
   <v>       0.00816327</v>
   <v>       0.00816327</v>
   <v>       0.00816327</v>
   <v>       0.00816327</v>
   <v>       0.00816327</v>
   <v>       0.00816327</v>
   <v>       0.00816327</v>
   <v>       0.00816327</v>
   <v>       0.00816327</v>
   <v>       0.00816327</v>
   <v>       0.00816327</v>
   <v>       0.00816327</v>
   <v>       0.00816327</v>
   <v>       0.00816327</v>
   <v>       0.00816327</v>
   <v>       0.00816327</v>
   <v>       0.00816327</v>
   <v>       0.00816327</v>
   <v>       0.00816327</v>
   <v>       0.00816327</v>
   <v>       0.00816327</v>
   <v>       0.00816327</v>
   <v>       0.00816327</v>
   <v>       0.00816327</v>
   <v>       0.00816327</v>
   <v>       0.00816327</v>
   <v>       0.00816327</v>
   <v>       0.00816327</v>
   <v>       0.00816327</v>
   <v>       0.00816327</v>
   <v>       0.00816327</v>
   <v>       0.00816327</v>
   <v>       0.00816327</v>
   <v>       0.00816327</v>
   <v>       0.00816327</v>
   <v>       0.00816327</v>
   <v>       0.00816327</v>
   <v>       0.00816327</v>
   <v>       0.00816327</v>
   <v>       0.00816327</v>
   <v>       0.00816327</v>
   <v>       0.00816327</v>
   <v>       0.00816327</v>
   <v>       0.00816327</v>
   <v>       0.00816327</v>
   <v>       0.00816327</v>
   <v>       0.00816327</v>
   <v>       0.00816327</v>
   <v>       0.00816327</v>
   <v>       0.00816327</v>
   <v>       0.00816327</v>
   <v>       0.00816327</v>
   <v>       0.00816327</v>
   <v>       0.00816327</v>
   <v>       0.00816327</v>
   <v>       0.00816327</v>
   <v>       0.00816327</v>
   <v>       0.00816327</v>
   <v>       0.00816327</v>
   <v>       0.00816327</v>
   <v>       0.00816327</v>
   <v>       0.00816327</v>
   <v>       0.00816327</v>
   <v>       0.00816327</v>
   <v>       0.00816327</v>
   <v>       0.00816327</v>
   <v>       0.00816327</v>
   <v>       0.00816327</v>
   <v>       0.00816327</v>
   <v>       0.00816327</v>
   <v>       0.00816327</v>
   <v>       0.00816327</v>
   <v>       0.00816327</v>
   <v>       0.00816327</v>
   <v>       0.00816327</v>
   <v>       0.00816327</v>
   <v>       0.00816327</v>
   <v>       0.00816327</v>
   <v>       0.00816327</v>
   <v>       0.00816327</v>
   <v>       0.00816327</v>
   <v>       0.00816327</v>
   <v>       0.00816327</v>
   <v>       0.00816327</v>
   <v>       0.00816327</v>
   <v>       0.00816327</v>
   <v>       0.00816327</v>
   <v>       0.00816327</v>
   <v>       0.00816327</v>
   <v>       0.00816327</v>
   <v>       0.00816327</v>
   <v>       0.00816327</v>
   <v>       0.00816327</v>
   <v>       0.00816327</v>
   <v>       0.00816327</v>
   <v>       0.00816327</v>
   <v>       0.00816327</v>
   <v>       0.00816327</v>
   <v>       0.00816327</v>
   <v>       0.00816327</v>
   <v>       0.00816327</v>
   <v>       0.00816327</v>
   <v>       0.00816327</v>
   <v>       0.00816327</v>
   <v>       0.00816327</v>
   <v>       0.00816327</v>
   <v>       0.00816327</v>
   <v>       0.00816327</v>
   <v>       0.00816327</v>
   <v>       0.00816327</v>
   <v>       0.00816327</v>
   <v>       0.00816327</v>
   <v>       0.00816327</v>
   <v>       0.00816327</v>
   <v>       0.00816327</v>
   <v>       0.00816327</v>
   <v>       0.00816327</v>
   <v>       0.00816327</v>
   <v>       0.00816327</v>
   <v>       0.00816327</v>
   <v>       0.00816327</v>
  </varray>
 </kpoints>
 <parameters>
  <separator name="general" >
   <i type="string" name="SYSTEM">unknown system</i>
   <i type="logical" name="LCOMPAT"> F  </i>
  </separator>
  <separator name="electronic" >
   <i type="string" name="PREC">accura</i>
   <i name="ENMAX">    500.00000000</i>
   <i name="ENAUG">    482.84800000</i>
   <i name="EDIFF">      0.00000001</i>
   <i type="int" name="IALGO">    38</i>
   <i type="int" name="IWAVPR">    10</i>
   <i type="int" name="NBANDS">   216</i>
   <i name="NELECT">    360.00000000</i>
   <separator name="electronic smearing" >
    <i type="int" name="ISMEAR">     0</i>
    <i name="SIGMA">      0.01000000</i>
   </separator>
   <separator name="electronic projectors" >
    <i type="logical" name="LREAL"> F  </i>
    <v name="ROPT">      0.00000000</v>
    <i type="int" name="LMAXPAW">  -100</i>
    <i type="int" name="LMAXMIX">     2</i>
   </separator>
   <separator name="electronic startup" >
    <i type="int" name="ISTART">     0</i>
    <i type="int" name="ICHARG">     2</i>
    <i type="int" name="INIWAV">     1</i>
   </separator>
   <separator name="electronic spin" >
    <i type="int" name="ISPIN">     1</i>
    <i type="logical" name="LNONCOLLINEAR"> F  </i>
    <v name="MAGMOM">      1.00000000      1.00000000      1.00000000      1.00000000      1.00000000      1.00000000      1.00000000      1.00000000      1.00000000      1.00000000      1.00000000      1.00000000      1.00000000      1.00000000      1.00000000      1.00000000      1.00000000      1.00000000      1.00000000      1.00000000
      1.00000000      1.00000000      1.00000000      1.00000000      1.00000000      1.00000000      1.00000000      1.00000000      1.00000000      1.00000000      1.00000000      1.00000000      1.00000000      1.00000000      1.00000000      1.00000000</v>
    <i name="NUPDOWN">     -1.00000000</i>
    <i type="logical" name="LSORBIT"> F  </i>
    <v name="SAXIS">      0.00000000      0.00000000      1.00000000</v>
    <i type="logical" name="LSPIRAL"> F  </i>
    <v name="QSPIRAL">      0.00000000      0.00000000      0.00000000</v>
    <i type="logical" name="LZEROZ"> F  </i>
   </separator>
   <separator name="electronic exchange-correlation" >
    <i type="string" name="GGA">--</i>
    <i type="int" name="VOSKOWN">     0</i>
    <i type="logical" name="LASPH"> F  </i>
    <i type="logical" name="LMETAGGA"> F  </i>
    <i type="string" name="GGA2">--</i>
   </separator>
   <separator name="electronic convergence" >
    <i type="int" name="NELM">    60</i>
    <i type="int" name="NELMDL">    -5</i>
    <i type="int" name="NELMIN">     2</i>
    <i name="ENINI">    500.00000000</i>
    <separator name="electronic convergence detail" >
     <i type="logical" name="LDIAG"> T  </i>
     <i name="WEIMIN">      0.00000000</i>
     <i name="EBREAK">      0.00000000</i>
     <i name="DEPER">      0.30000000</i>
     <i type="int" name="NRMM">     4</i>
     <i name="TIME">      0.10000000</i>
    </separator>
   </separator>
   <separator name="electronic mixer" >
    <i name="AMIX">      0.40000000</i>
    <i name="BMIX">      1.00000000</i>
    <i name="AMIN">      0.10000000</i>
    <i name="AMIX_MAG">      1.60000000</i>
    <i name="BMIX_MAG">      1.00000000</i>
    <separator name="electronic mixer details" >
     <i type="int" name="IMIX">     4</i>
     <i type="int" name="MAXMIX">   -45</i>
     <i name="WC">    100.00000000</i>
     <i type="int" name="INIMIX">     1</i>
     <i type="int" name="MIXPRE">     1</i>
     <i type="int" name="MREMOVE">     5</i>
    </separator>
   </separator>
   <separator name="electronic dipolcorrection" >
    <i type="int" name="IDIPOL">     0</i>
    <i type="logical" name="LDIPOL"> F  </i>
    <v name="DIPOL">   -100.00000000</v>
    <i name="EFIELD">      0.00000000</i>
   </separator>
  </separator>
  <separator name="grids" >
   <i type="int" name="NGX">    64</i>
   <i type="int" name="NGY">    64</i>
   <i type="int" name="NGZ">    70</i>
   <i type="int" name="NGXF">   128</i>
   <i type="int" name="NGYF">   128</i>
   <i type="int" name="NGZF">   140</i>
   <i type="logical" name="ADDGRID"> F  </i>
  </separator>
  <separator name="ionic" >
   <i type="int" name="NSW">     0</i>
   <i type="int" name="IBRION">    -1</i>
   <i type="int" name="ISIF">     2</i>
   <i name="PSTRESS">      0.00000000</i>
   <i name="EDIFFG">      0.00000010</i>
   <i type="int" name="NFREE">     0</i>
   <i name="POTIM">      0.50000000</i>
   <i name="SMASS">     -3.00000000</i>
  </separator>
  <separator name="ionic md" >
   <i name="TEBEG">      0.00010000</i>
   <i name="TEEND">      0.00010000</i>
   <i type="int" name="NBLOCK">     1</i>
   <i type="int" name="KBLOCK">     1</i>
   <i type="int" name="NPACO">   256</i>
   <i name="APACO">     16.00000000</i>
  </separator>
  <separator name="symmetry" >
   <i type="int" name="ISYM">     2</i>
   <i name="SYMPREC">      0.00001000</i>
  </separator>
  <separator name="dos" >
   <i type="logical" name="LORBIT"> F  </i>
   <v name="RWIGS">     -1.00000000</v>
   <i type="int" name="NEDOS">   301</i>
   <i name="EMIN">     10.00000000</i>
   <i name="EMAX">    -10.00000000</i>
  </separator>
  <separator name="writing" >
   <i type="int" name="NWRITE">     2</i>
   <i type="logical" name="LWAVE"> F  </i>
   <i type="logical" name="LCHARG"> F  </i>
   <i type="logical" name="LPARD"> F  </i>
   <i type="logical" name="LVTOT"> F  </i>
   <i type="logical" name="LELF"> F  </i>
   <i type="logical" name="LOPTICS"> F  </i>
   <i name="STM">      0.00000000</i>
  </separator>
  <separator name="performance" >
   <i type="int" name="NPAR">     8</i>
   <i type="int" name="NSIM">     4</i>
   <i type="int" name="NBLK">   256</i>
   <i type="logical" name="LPLANE"> T  </i>
   <i type="logical" name="LCRITICAL_MEM"> F  </i>
   <i type="logical" name="LSCALAPACK"> F  </i>
   <i type="logical" name="LSCALU"> F  </i>
   <i type="logical" name="LASYNC"> F  </i>
  </separator>
  <separator name="miscellaneous" >
   <i type="int" name="IDIOT">     3</i>
   <i type="logical" name="LMUSIC"> F  </i>
   <v name="POMASS">     47.88000000</v>
   <i type="logical" name="LCORR"> T  </i>
  </separator>
  <i type="logical" name="LREAL_COMPAT"> F  </i>
  <i type="logical" name="GGA_COMPAT"> T  </i>
  <i type="logical" name="LBERRY"> F  </i>
  <i type="int" name="ICORELEVEL">     0</i>
  <i type="logical" name="LDAU"> F  </i>
  <i type="int" name="I_CONSTRAINED_M">     0</i>
 </parameters>
 <atominfo>
  <atoms>      36</atoms>
  <types>       1</types>
  <array name="atoms" >
   <dimension dim="1">ion</dimension>
   <field type="string">element</field>
   <field type="int">atomtype</field>
   <set>
    <rc><c>Ti</c><c>   1</c></rc>
    <rc><c>Ti</c><c>   1</c></rc>
    <rc><c>Ti</c><c>   1</c></rc>
    <rc><c>Ti</c><c>   1</c></rc>
    <rc><c>Ti</c><c>   1</c></rc>
    <rc><c>Ti</c><c>   1</c></rc>
    <rc><c>Ti</c><c>   1</c></rc>
    <rc><c>Ti</c><c>   1</c></rc>
    <rc><c>Ti</c><c>   1</c></rc>
    <rc><c>Ti</c><c>   1</c></rc>
    <rc><c>Ti</c><c>   1</c></rc>
    <rc><c>Ti</c><c>   1</c></rc>
    <rc><c>Ti</c><c>   1</c></rc>
    <rc><c>Ti</c><c>   1</c></rc>
    <rc><c>Ti</c><c>   1</c></rc>
    <rc><c>Ti</c><c>   1</c></rc>
    <rc><c>Ti</c><c>   1</c></rc>
    <rc><c>Ti</c><c>   1</c></rc>
    <rc><c>Ti</c><c>   1</c></rc>
    <rc><c>Ti</c><c>   1</c></rc>
    <rc><c>Ti</c><c>   1</c></rc>
    <rc><c>Ti</c><c>   1</c></rc>
    <rc><c>Ti</c><c>   1</c></rc>
    <rc><c>Ti</c><c>   1</c></rc>
    <rc><c>Ti</c><c>   1</c></rc>
    <rc><c>Ti</c><c>   1</c></rc>
    <rc><c>Ti</c><c>   1</c></rc>
    <rc><c>Ti</c><c>   1</c></rc>
    <rc><c>Ti</c><c>   1</c></rc>
    <rc><c>Ti</c><c>   1</c></rc>
    <rc><c>Ti</c><c>   1</c></rc>
    <rc><c>Ti</c><c>   1</c></rc>
    <rc><c>Ti</c><c>   1</c></rc>
    <rc><c>Ti</c><c>   1</c></rc>
    <rc><c>Ti</c><c>   1</c></rc>
    <rc><c>Ti</c><c>   1</c></rc>
   </set>
  </array>
  <array name="atomtypes" >
   <dimension dim="1">type</dimension>
   <field type="int">atomspertype</field>
   <field type="string">element</field>
   <field>mass</field>
   <field>valence</field>
   <field type="string">pseudopotential</field>
   <set>
    <rc><c>  36</c><c>Ti</c><c>     47.88000000</c><c>     10.00000000</c><c> PAW_PBE Ti_pv 07Sep2000                </c></rc>
   </set>
  </array>
 </atominfo>
 <structure name="initialpos" >
  <crystal>
   <varray name="basis" >
    <v>       8.82066710      0.02476544      0.00000000</v>
    <v>      -4.38888587      7.65130461      0.00000000</v>
    <v>       0.00000000      0.00000000      9.20747447</v>
   </varray>
   <i name="volume">    622.40965371</i>
   <varray name="rec_basis" >
    <v>       0.11318782      0.06492598      0.00000000</v>
    <v>      -0.00036636      0.13048652      0.00000000</v>
    <v>       0.00000000      0.00000000      0.10860741</v>
   </varray>
  </crystal>
  <varray name="positions" >
   <v>       0.11152766      0.22258994      0.12578427</v>
   <v>       0.44407673      0.22258994      0.12500000</v>
   <v>       0.77741006      0.22258994      0.12500000</v>
   <v>       0.11074339      0.55592327      0.12500000</v>
   <v>       0.44407673      0.55592327      0.12500000</v>
   <v>       0.77741006      0.55592327      0.12500000</v>
   <v>       0.11074339      0.88925661      0.12500000</v>
   <v>       0.44407673      0.88925661      0.12500000</v>
   <v>       0.77741006      0.88925661      0.12500000</v>
   <v>       0.11074339      0.22258994      0.62500000</v>
   <v>       0.44407673      0.22258994      0.62500000</v>
   <v>       0.77741006      0.22258994      0.62500000</v>
   <v>       0.11074339      0.55592327      0.62500000</v>
   <v>       0.44407673      0.55592327      0.62500000</v>
   <v>       0.77741006      0.55592327      0.62500000</v>
   <v>       0.11074339      0.88925661      0.62500000</v>
   <v>       0.44407673      0.88925661      0.62500000</v>
   <v>       0.77741006      0.88925661      0.62500000</v>
   <v>       0.22258994      0.11074339      0.37500000</v>
   <v>       0.55592327      0.11074339      0.37500000</v>
   <v>       0.88925661      0.11074339      0.37500000</v>
   <v>       0.22258994      0.44407673      0.37500000</v>
   <v>       0.55592327      0.44407673      0.37500000</v>
   <v>       0.88925661      0.44407673      0.37500000</v>
   <v>       0.22258994      0.77741006      0.37500000</v>
   <v>       0.55592327      0.77741006      0.37500000</v>
   <v>       0.88925661      0.77741006      0.37500000</v>
   <v>       0.22258994      0.11074339      0.87500000</v>
   <v>       0.55592327      0.11074339      0.87500000</v>
   <v>       0.88925661      0.11074339      0.87500000</v>
   <v>       0.22258994      0.44407673      0.87500000</v>
   <v>       0.55592327      0.44407673      0.87500000</v>
   <v>       0.88925661      0.44407673      0.87500000</v>
   <v>       0.22258994      0.77741006      0.87500000</v>
   <v>       0.55592327      0.77741006      0.87500000</v>
   <v>       0.88925661      0.77741006      0.87500000</v>
  </varray>
 </structure>
 <calculation>
  <scstep>
   <time name="dav">  379.54  379.56</time>
   <time name="total">  379.88  379.90</time>
   <energy>
    <i name="alphaZ">   2270.51201468</i>
    <i name="ewald"> -28942.78869846</i>
    <i name="hartreedc">  -7971.32034904</i>
    <i name="XCdc">   1293.32570351</i>
    <i name="pawpsdc">  25711.31321228</i>
    <i name="pawaedc"> -25685.71707589</i>
    <i name="eentropy">     -0.00099410</i>
    <i name="bandstr">    792.73098335</i>
    <i name="atom">  37525.52423787</i>
    <i name="e_fr_energy">   4993.57903421</i>
    <i name="e_wo_entrp">   4993.58002831</i>
    <i name="e_0_energy">   4993.57953126</i>
   </energy>
  </scstep>
  <scstep>
   <time name="dav">  374.20  374.21</time>
   <time name="total">  374.30  374.31</time>
   <energy>
    <i name="e_fr_energy">     91.09998113</i>
    <i name="e_wo_entrp">     91.10168219</i>
    <i name="e_0_energy">     91.10083166</i>
   </energy>
  </scstep>
  <scstep>
   <time name="dav">  507.69  507.93</time>
   <time name="total">  507.79  508.03</time>
   <energy>
    <i name="e_fr_energy">   -292.08783339</i>
    <i name="e_wo_entrp">   -292.08664755</i>
    <i name="e_0_energy">   -292.08724047</i>
   </energy>
  </scstep>
  <scstep>
   <time name="dav">  484.74  484.76</time>
   <time name="total">  484.83  484.86</time>
   <energy>
    <i name="e_fr_energy">   -323.54051591</i>
    <i name="e_wo_entrp">   -323.53969039</i>
    <i name="e_0_energy">   -323.54010315</i>
   </energy>
  </scstep>
  <scstep>
   <time name="dav">  472.53  472.56</time>
   <time name="total">  489.48  489.52</time>
   <energy>
    <i name="e_fr_energy">   -324.46926547</i>
    <i name="e_wo_entrp">   -324.46831918</i>
    <i name="e_0_energy">   -324.46879233</i>
   </energy>
  </scstep>
  <scstep>
   <time name="dav">  403.89  403.84</time>
   <time name="total">  420.87  420.82</time>
   <energy>
    <i name="e_fr_energy">   -286.11606279</i>
    <i name="e_wo_entrp">   -286.11376384</i>
    <i name="e_0_energy">   -286.11491332</i>
   </energy>
  </scstep>
  <scstep>
   <time name="dav">  480.98  499.14</time>
   <time name="total">  497.89  522.20</time>
   <energy>
    <i name="e_fr_energy">   -284.20353018</i>
    <i name="e_wo_entrp">   -284.20175520</i>
    <i name="e_0_energy">   -284.20264269</i>
   </energy>
  </scstep>
  <scstep>
   <time name="dav"> 1345.59 2110.29</time>
   <time name="total"> 1367.18 2243.83</time>
   <energy>
    <i name="e_fr_energy">   -284.28920077</i>
    <i name="e_wo_entrp">   -284.28722356</i>
    <i name="e_0_energy">   -284.28821217</i>
   </energy>
  </scstep>
  <scstep>
   <time name="dav">  661.40  713.87</time>
   <time name="total">  687.74  745.98</time>
   <energy>
    <i name="e_fr_energy">   -284.10902351</i>
    <i name="e_wo_entrp">   -284.10674154</i>
    <i name="e_0_energy">   -284.10788253</i>
   </energy>
  </scstep>
  <scstep>
   <time name="dav">  594.47  615.63</time>
   <time name="total">  621.80  646.94</time>
   <energy>
    <i name="e_fr_energy">   -284.04569256</i>
    <i name="e_wo_entrp">   -284.04337849</i>
    <i name="e_0_energy">   -284.04453553</i>
   </energy>
  </scstep>
  <scstep>
   <time name="dav">  562.01  576.51</time>
   <time name="total">  584.07  599.54</time>
   <energy>
    <i name="e_fr_energy">   -284.01651575</i>
    <i name="e_wo_entrp">   -284.01450624</i>
    <i name="e_0_energy">   -284.01551099</i>
   </energy>
  </scstep>
  <scstep>
   <time name="dav">  673.57  679.54</time>
   <time name="total">  701.03  707.20</time>
   <energy>
    <i name="e_fr_energy">   -284.01727660</i>
    <i name="e_wo_entrp">   -284.01528588</i>
    <i name="e_0_energy">   -284.01628124</i>
   </energy>
  </scstep>
  <scstep>
   <time name="dav">  633.98  635.29</time>
   <time name="total">  660.32  661.83</time>
   <energy>
    <i name="e_fr_energy">   -284.01597766</i>
    <i name="e_wo_entrp">   -284.01394285</i>
    <i name="e_0_energy">   -284.01496025</i>
   </energy>
  </scstep>
  <scstep>
   <time name="dav">  678.59  681.99</time>
   <time name="total">  707.17  710.62</time>
   <energy>
    <i name="e_fr_energy">   -284.01580016</i>
    <i name="e_wo_entrp">   -284.01375315</i>
    <i name="e_0_energy">   -284.01477666</i>
   </energy>
  </scstep>
  <scstep>
   <time name="dav">  677.33  678.57</time>
   <time name="total">  703.38  704.71</time>
   <energy>
    <i name="e_fr_energy">   -284.01575568</i>
    <i name="e_wo_entrp">   -284.01370732</i>
    <i name="e_0_energy">   -284.01473150</i>
   </energy>
  </scstep>
  <scstep>
   <time name="dav">  693.01  696.33</time>
   <time name="total">  720.41  723.88</time>
   <energy>
    <i name="e_fr_energy">   -284.01573567</i>
    <i name="e_wo_entrp">   -284.01368639</i>
    <i name="e_0_energy">   -284.01471103</i>
   </energy>
  </scstep>
  <scstep>
   <time name="dav">  639.47  642.77</time>
   <time name="total">  666.55  670.10</time>
   <energy>
    <i name="e_fr_energy">   -284.01570051</i>
    <i name="e_wo_entrp">   -284.01364642</i>
    <i name="e_0_energy">   -284.01467347</i>
   </energy>
  </scstep>
  <scstep>
   <time name="dav">  680.43  681.12</time>
   <time name="total">  706.57  707.28</time>
   <energy>
    <i name="e_fr_energy">   -284.01568781</i>
    <i name="e_wo_entrp">   -284.01363179</i>
    <i name="e_0_energy">   -284.01465980</i>
   </energy>
  </scstep>
  <scstep>
   <time name="dav">  669.56  672.19</time>
   <time name="total">  698.04  700.71</time>
   <energy>
    <i name="e_fr_energy">   -284.01567964</i>
    <i name="e_wo_entrp">   -284.01362261</i>
    <i name="e_0_energy">   -284.01465113</i>
   </energy>
  </scstep>
  <scstep>
   <time name="dav">  684.53  685.06</time>
   <time name="total">  710.60  711.13</time>
   <energy>
    <i name="e_fr_energy">   -284.01567762</i>
    <i name="e_wo_entrp">   -284.01362031</i>
    <i name="e_0_energy">   -284.01464896</i>
   </energy>
  </scstep>
  <scstep>
   <time name="dav">  545.03  548.30</time>
   <time name="total">  574.76  578.10</time>
   <energy>
    <i name="e_fr_energy">   -284.01567734</i>
    <i name="e_wo_entrp">   -284.01361987</i>
    <i name="e_0_energy">   -284.01464860</i>
   </energy>
  </scstep>
  <scstep>
   <time name="dav">  416.39  416.98</time>
   <time name="total">  443.86  445.21</time>
   <energy>
    <i name="e_fr_energy">   -284.01567740</i>
    <i name="e_wo_entrp">   -284.01361991</i>
    <i name="e_0_energy">   -284.01464865</i>
   </energy>
  </scstep>
  <scstep>
   <time name="dav">  423.74  425.51</time>
   <time name="total">  455.44  458.10</time>
   <energy>
    <i name="e_fr_energy">   -284.01567783</i>
    <i name="e_wo_entrp">   -284.01362036</i>
    <i name="e_0_energy">   -284.01464910</i>
   </energy>
  </scstep>
  <scstep>
   <time name="dav">  396.06  396.50</time>
   <time name="total">  425.62  426.12</time>
   <energy>
    <i name="e_fr_energy">   -284.01567791</i>
    <i name="e_wo_entrp">   -284.01362044</i>
    <i name="e_0_energy">   -284.01464917</i>
   </energy>
  </scstep>
  <scstep>
   <time name="dav">  404.49  407.32</time>
   <time name="total">  434.83  437.97</time>
   <energy>
    <i name="e_fr_energy">   -284.01567796</i>
    <i name="e_wo_entrp">   -284.01362050</i>
    <i name="e_0_energy">   -284.01464923</i>
   </energy>
  </scstep>
  <scstep>
   <time name="dav">  406.92  407.19</time>
   <time name="total">  431.52  431.90</time>
   <energy>
    <i name="e_fr_energy">   -284.01567798</i>
    <i name="e_wo_entrp">   -284.01362051</i>
    <i name="e_0_energy">   -284.01464925</i>
   </energy>
  </scstep>
  <scstep>
   <time name="dav">  396.04  396.60</time>
   <time name="total">  424.19  424.88</time>
   <energy>
    <i name="e_fr_energy">   -284.01567800</i>
    <i name="e_wo_entrp">   -284.01362053</i>
    <i name="e_0_energy">   -284.01464926</i>
   </energy>
  </scstep>
  <scstep>
   <time name="dav">  387.58  390.08</time>
   <time name="total">  388.07  390.62</time>
   <energy>
    <i name="alphaZ">   2270.51201468</i>
    <i name="ewald"> -28942.78869846</i>
    <i name="hartreedc">  -7055.71771480</i>
    <i name="XCdc">   1246.79691526</i>
    <i name="pawpsdc">  25661.91504376</i>
    <i name="pawaedc"> -25762.90489650</i>
    <i name="eentropy">     -0.00205747</i>
    <i name="bandstr">  -5227.35052235</i>
    <i name="atom">  37525.52423787</i>
    <i name="e_fr_energy">   -284.01567801</i>
    <i name="e_wo_entrp">   -284.01362054</i>
    <i name="e_0_energy">   -284.01464927</i>
   </energy>
  </scstep>
  <structure>
   <crystal>
    <varray name="basis" >
     <v>       8.82066710      0.02476544      0.00000000</v>
     <v>      -4.38888587      7.65130461      0.00000000</v>
     <v>       0.00000000      0.00000000      9.20747447</v>
    </varray>
    <i name="volume">    622.40965371</i>
    <varray name="rec_basis" >
     <v>       0.11318782      0.06492598      0.00000000</v>
     <v>      -0.00036636      0.13048652      0.00000000</v>
     <v>       0.00000000      0.00000000      0.10860741</v>
    </varray>
   </crystal>
   <varray name="positions" >
    <v>       0.11152766      0.22258994      0.12578427</v>
    <v>       0.44407673      0.22258994      0.12500000</v>
    <v>       0.77741006      0.22258994      0.12500000</v>
    <v>       0.11074339      0.55592327      0.12500000</v>
    <v>       0.44407673      0.55592327      0.12500000</v>
    <v>       0.77741006      0.55592327      0.12500000</v>
    <v>       0.11074339      0.88925661      0.12500000</v>
    <v>       0.44407673      0.88925661      0.12500000</v>
    <v>       0.77741006      0.88925661      0.12500000</v>
    <v>       0.11074339      0.22258994      0.62500000</v>
    <v>       0.44407673      0.22258994      0.62500000</v>
    <v>       0.77741006      0.22258994      0.62500000</v>
    <v>       0.11074339      0.55592327      0.62500000</v>
    <v>       0.44407673      0.55592327      0.62500000</v>
    <v>       0.77741006      0.55592327      0.62500000</v>
    <v>       0.11074339      0.88925661      0.62500000</v>
    <v>       0.44407673      0.88925661      0.62500000</v>
    <v>       0.77741006      0.88925661      0.62500000</v>
    <v>       0.22258994      0.11074339      0.37500000</v>
    <v>       0.55592327      0.11074339      0.37500000</v>
    <v>       0.88925661      0.11074339      0.37500000</v>
    <v>       0.22258994      0.44407673      0.37500000</v>
    <v>       0.55592327      0.44407673      0.37500000</v>
    <v>       0.88925661      0.44407673      0.37500000</v>
    <v>       0.22258994      0.77741006      0.37500000</v>
    <v>       0.55592327      0.77741006      0.37500000</v>
    <v>       0.88925661      0.77741006      0.37500000</v>
    <v>       0.22258994      0.11074339      0.87500000</v>
    <v>       0.55592327      0.11074339      0.87500000</v>
    <v>       0.88925661      0.11074339      0.87500000</v>
    <v>       0.22258994      0.44407673      0.87500000</v>
    <v>       0.55592327      0.44407673      0.87500000</v>
    <v>       0.88925661      0.44407673      0.87500000</v>
    <v>       0.22258994      0.77741006      0.87500000</v>
    <v>       0.55592327      0.77741006      0.87500000</v>
    <v>       0.88925661      0.77741006      0.87500000</v>
   </varray>
  </structure>
  <varray name="forces" >
   <v>      -0.04521845      0.00073529     -0.04994684</v>
   <v>       0.00874038     -0.00345697      0.00162962</v>
   <v>       0.00856702      0.00439294      0.00163261</v>
   <v>       0.00198007     -0.00756016      0.00162150</v>
   <v>       0.00261188      0.00781919      0.00138258</v>
   <v>       0.00098213      0.00039648      0.00077306</v>
   <v>       0.00185623      0.00085564      0.00161539</v>
   <v>       0.00123593      0.00072830      0.00077202</v>
   <v>       0.00251149     -0.00016162      0.00138608</v>
   <v>      -0.00341677     -0.00014883      0.01329441</v>
   <v>       0.00061320      0.00157091     -0.00020279</v>
   <v>       0.00063523     -0.00043090     -0.00019047</v>
   <v>      -0.00073090      0.00049184     -0.00019906</v>
   <v>       0.00009152     -0.00000703     -0.00033063</v>
   <v>      -0.00155629      0.00032007     -0.00098540</v>
   <v>      -0.00082398     -0.00093671     -0.00020342</v>
   <v>      -0.00129751      0.00066895     -0.00098497</v>
   <v>      -0.00002908      0.00204904     -0.00032702</v>
   <v>       0.01287810     -0.00765556      0.01244453</v>
   <v>       0.00023571     -0.00055343     -0.00017838</v>
   <v>      -0.00151580     -0.00220864     -0.00142757</v>
   <v>       0.00098142      0.00812437      0.00576005</v>
   <v>      -0.00214646     -0.00113390     -0.00152109</v>
   <v>       0.00018418     -0.00044913      0.00073219</v>
   <v>       0.00062484     -0.00006976     -0.00015640</v>
   <v>       0.00119956     -0.00079788     -0.00020476</v>
   <v>      -0.00053860      0.00098804     -0.00040168</v>
   <v>      -0.00187674      0.00089144     -0.00171270</v>
   <v>       0.00025902     -0.00048781     -0.00015056</v>
   <v>       0.01289989      0.00617778      0.01235057</v>
   <v>       0.00094670     -0.00872573      0.00544617</v>
   <v>       0.00005840      0.00025611      0.00059678</v>
   <v>      -0.00207987      0.00085763     -0.00142869</v>
   <v>       0.00059120     -0.00012723     -0.00017403</v>
   <v>       0.00119028     -0.00080027     -0.00019173</v>
   <v>      -0.00064394     -0.00161246     -0.00051935</v>
  </varray>
  <varray name="stress" >
   <v>       1.83627166     -2.16909078      0.00250188</v>
   <v>      -2.16899533     -0.61826277     -0.00078244</v>
   <v>       0.00253440     -0.00090167     12.84528120</v>
  </varray>
  <energy>
   <i name="e_fr_energy">   -284.01567801</i>
   <i name="e_wo_entrp">   -284.01464927</i>
   <i name="e_0_energy">     -0.00205747</i>
  </energy>
  <eigenvalues>
   <array>
    <dimension dim="1">band</dimension>
    <dimension dim="2">kpoint</dimension>
    <dimension dim="3">spin</dimension>
    <field>eigene</field>
    <field>occ</field>
    <set>
     <set comment="spin 1">
      <set comment="kpoint 1">
       <r> -27.5009  1.0000</r>
       <r> -27.3028  1.0000</r>
       <r> -27.3026  1.0000</r>
       <r> -27.3026  1.0000</r>
       <r> -27.3024  1.0000</r>
       <r> -27.2969  1.0000</r>
       <r> -27.2966  1.0000</r>
       <r> -27.2965  1.0000</r>
       <r> -27.2962  1.0000</r>
       <r> -27.2961  1.0000</r>
       <r> -27.2961  1.0000</r>
       <r> -27.2941  1.0000</r>
       <r> -27.2941  1.0000</r>
       <r> -27.2940  1.0000</r>
       <r> -27.2940  1.0000</r>
       <r> -27.2940  1.0000</r>
       <r> -27.2938  1.0000</r>
       <r> -27.2938  1.0000</r>
       <r> -27.2936  1.0000</r>
       <r> -27.2910  1.0000</r>
       <r> -27.2910  1.0000</r>
       <r> -27.2908  1.0000</r>
       <r> -27.2907  1.0000</r>
       <r> -27.2176  1.0000</r>
       <r> -27.2172  1.0000</r>
       <r> -27.1840  1.0000</r>
       <r> -27.1838  1.0000</r>
       <r> -27.1829  1.0000</r>
       <r> -27.1828  1.0000</r>
       <r> -27.1827  1.0000</r>
       <r> -27.1825  1.0000</r>
       <r> -27.1426  1.0000</r>
       <r> -27.1420  1.0000</r>
       <r> -27.1012  1.0000</r>
       <r> -27.1008  1.0000</r>
       <r> -27.0992  1.0000</r>
       <r> -27.0989  1.0000</r>
       <r> -27.0967  1.0000</r>
       <r> -27.0963  1.0000</r>
       <r> -27.0963  1.0000</r>
       <r> -27.0959  1.0000</r>
       <r> -27.0655  1.0000</r>
       <r> -27.0654  1.0000</r>
       <r> -27.0653  1.0000</r>
       <r> -27.0652  1.0000</r>
       <r> -27.0648  1.0000</r>
       <r> -27.0647  1.0000</r>
       <r> -27.0645  1.0000</r>
       <r> -27.0638  1.0000</r>
       <r> -27.0602  1.0000</r>
       <r> -27.0599  1.0000</r>
       <r> -26.9728  1.0000</r>
       <r> -26.9724  1.0000</r>
       <r> -26.9541  1.0000</r>
       <r> -26.9541  1.0000</r>
       <r> -26.9439  1.0000</r>
       <r> -26.9437  1.0000</r>
       <r> -26.9437  1.0000</r>
       <r> -26.9436  1.0000</r>
       <r> -26.9183  1.0000</r>
       <r> -26.9181  1.0000</r>
       <r> -26.9180  1.0000</r>
       <r> -26.9178  1.0000</r>
       <r> -26.9163  1.0000</r>
       <r> -26.9163  1.0000</r>
       <r> -26.9159  1.0000</r>
       <r> -26.9159  1.0000</r>
       <r> -26.9158  1.0000</r>
       <r> -26.9157  1.0000</r>
       <r> -26.9156  1.0000</r>
       <r> -26.9152  1.0000</r>
       <r> -26.8770  1.0000</r>
       <r> -26.8766  1.0000</r>
       <r> -26.8765  1.0000</r>
       <r> -26.8761  1.0000</r>
       <r> -26.8735  1.0000</r>
       <r> -26.8731  1.0000</r>
       <r> -26.8693  1.0000</r>
       <r> -26.8690  1.0000</r>
       <r> -26.8689  1.0000</r>
       <r> -26.8688  1.0000</r>
       <r> -26.8605  1.0000</r>
       <r> -26.8605  1.0000</r>
       <r> -26.8604  1.0000</r>
       <r> -26.8603  1.0000</r>
       <r> -26.8602  1.0000</r>
       <r> -26.8602  1.0000</r>
       <r> -26.8601  1.0000</r>
       <r> -26.8598  1.0000</r>
       <r> -26.8543  1.0000</r>
       <r> -26.8542  1.0000</r>
       <r> -26.8542  1.0000</r>
       <r> -26.8541  1.0000</r>
       <r> -26.8436  1.0000</r>
       <r> -26.8340  1.0000</r>
       <r> -26.7878  1.0000</r>
       <r> -26.7877  1.0000</r>
       <r> -26.7827  1.0000</r>
       <r> -26.7826  1.0000</r>
       <r> -26.7809  1.0000</r>
       <r> -26.7808  1.0000</r>
       <r> -26.7758  1.0000</r>
       <r> -26.7757  1.0000</r>
       <r> -26.7756  1.0000</r>
       <r> -26.7754  1.0000</r>
       <r> -26.7650  1.0000</r>
       <r> -26.7315  1.0000</r>
       <r> -26.7274  1.0000</r>
       <r>  -0.2115  1.0000</r>
       <r>   1.6772  1.0000</r>
       <r>   1.6774  1.0000</r>
       <r>   2.3382  1.0000</r>
       <r>   2.3385  1.0000</r>
       <r>   2.3387  1.0000</r>
       <r>   2.3389  1.0000</r>
       <r>   2.3552  1.0000</r>
       <r>   2.3555  1.0000</r>
       <r>   3.2430  1.0000</r>
       <r>   3.2433  1.0000</r>
       <r>   3.2436  1.0000</r>
       <r>   3.2436  1.0000</r>
       <r>   3.2437  1.0000</r>
       <r>   3.2439  1.0000</r>
       <r>   3.2441  1.0000</r>
       <r>   3.2442  1.0000</r>
       <r>   3.2569  1.0000</r>
       <r>   3.2575  1.0000</r>
       <r>   3.2576  1.0000</r>
       <r>   3.2577  1.0000</r>
       <r>   3.2737  1.0000</r>
       <r>   4.1932  1.0000</r>
       <r>   4.1939  1.0000</r>
       <r>   4.2010  1.0000</r>
       <r>   4.2015  1.0000</r>
       <r>   4.2017  1.0000</r>
       <r>   4.2021  1.0000</r>
       <r>   4.2274  1.0000</r>
       <r>   4.2290  1.0000</r>
       <r>   4.5192  1.0000</r>
       <r>   4.5194  1.0000</r>
       <r>   4.5274  1.0000</r>
       <r>   4.5284  1.0000</r>
       <r>   4.5307  1.0000</r>
       <r>   4.5309  1.0000</r>
       <r>   4.5495  1.0000</r>
       <r>   4.5508  1.0000</r>
       <r>   4.5509  1.0000</r>
       <r>   4.5512  1.0000</r>
       <r>   4.6340  1.0000</r>
       <r>   4.6342  1.0000</r>
       <r>   4.6902  1.0000</r>
       <r>   4.6912  1.0000</r>
       <r>   4.6919  1.0000</r>
       <r>   4.6930  1.0000</r>
       <r>   4.8668  1.0000</r>
       <r>   4.8682  1.0000</r>
       <r>   4.8682  1.0000</r>
       <r>   4.8695  1.0000</r>
       <r>   5.2764  1.0000</r>
       <r>   5.2789  1.0000</r>
       <r>   5.2793  1.0000</r>
       <r>   5.2794  1.0000</r>
       <r>   5.2796  1.0000</r>
       <r>   5.2798  1.0000</r>
       <r>   5.2800  1.0000</r>
       <r>   5.2804  1.0000</r>
       <r>   5.2816  1.0000</r>
       <r>   5.2819  1.0000</r>
       <r>   5.2820  1.0000</r>
       <r>   5.2843  1.0000</r>
       <r>   5.3005  1.0000</r>
       <r>   5.3012  1.0000</r>
       <r>   5.3013  1.0000</r>
       <r>   5.3024  1.0000</r>
       <r>   5.3286  1.0000</r>
       <r>   5.3302  1.0000</r>
       <r>   5.7366  1.0000</r>
       <r>   5.7367  1.0000</r>
       <r>   5.7368  1.0000</r>
       <r>   5.7369  1.0000</r>
       <r>   6.0798  0.0000</r>
       <r>   6.0826  0.0000</r>
       <r>   6.1602  0.0000</r>
       <r>   6.1613  0.0000</r>
       <r>   6.2134  0.0000</r>
       <r>   6.2151  0.0000</r>
       <r>   6.5306  0.0000</r>
       <r>   6.5311  0.0000</r>
       <r>   6.5315  0.0000</r>
       <r>   6.5318  0.0000</r>
       <r>   6.5321  0.0000</r>
       <r>   6.5326  0.0000</r>
       <r>   6.5329  0.0000</r>
       <r>   6.5337  0.0000</r>
       <r>   6.5508  0.0000</r>
       <r>   6.5516  0.0000</r>
       <r>   6.5562  0.0000</r>
       <r>   6.5563  0.0000</r>
       <r>   6.5703  0.0000</r>
       <r>   6.5717  0.0000</r>
       <r>   6.5722  0.0000</r>
       <r>   6.5731  0.0000</r>
       <r>   6.6031  0.0000</r>
       <r>   6.6039  0.0000</r>
       <r>   6.6043  0.0000</r>
       <r>   6.6044  0.0000</r>
       <r>   6.6167  0.0000</r>
       <r>   6.6168  0.0000</r>
       <r>   6.6582  0.0000</r>
       <r>   6.7515  0.0000</r>
       <r>   6.7901  0.0000</r>
       <r>   6.7911  0.0000</r>
       <r>   6.7948  0.0000</r>
       <r>   6.7954  0.0000</r>
       <r>   6.7978  0.0000</r>
       <r>   6.8491  0.0000</r>
      </set>
      <set comment="kpoint 2">
       <r> -27.4958  1.0000</r>
       <r> -27.3419  1.0000</r>
       <r> -27.3324  1.0000</r>
       <r> -27.3323  1.0000</r>
       <r> -27.3165  1.0000</r>
       <r> -27.3161  1.0000</r>
       <r> -27.3127  1.0000</r>
       <r> -27.3126  1.0000</r>
       <r> -27.3102  1.0000</r>
       <r> -27.3101  1.0000</r>
       <r> -27.3080  1.0000</r>
       <r> -27.3079  1.0000</r>
       <r> -27.3077  1.0000</r>
       <r> -27.3076  1.0000</r>
       <r> -27.2732  1.0000</r>
       <r> -27.2731  1.0000</r>
       <r> -27.2716  1.0000</r>
       <r> -27.2708  1.0000</r>
       <r> -27.2701  1.0000</r>
       <r> -27.2699  1.0000</r>
       <r> -27.2521  1.0000</r>
       <r> -27.2518  1.0000</r>
       <r> -27.2517  1.0000</r>
       <r> -27.2365  1.0000</r>
       <r> -27.2237  1.0000</r>
       <r> -27.2209  1.0000</r>
       <r> -27.2111  1.0000</r>
       <r> -27.2085  1.0000</r>
       <r> -27.1513  1.0000</r>
       <r> -27.1508  1.0000</r>
       <r> -27.1443  1.0000</r>
       <r> -27.1437  1.0000</r>
       <r> -27.1189  1.0000</r>
       <r> -27.1138  1.0000</r>
       <r> -27.1132  1.0000</r>
       <r> -27.1100  1.0000</r>
       <r> -27.1003  1.0000</r>
       <r> -27.0971  1.0000</r>
       <r> -27.0928  1.0000</r>
       <r> -27.0916  1.0000</r>
       <r> -27.0862  1.0000</r>
       <r> -27.0861  1.0000</r>
       <r> -27.0858  1.0000</r>
       <r> -27.0855  1.0000</r>
       <r> -27.0839  1.0000</r>
       <r> -27.0836  1.0000</r>
       <r> -27.0436  1.0000</r>
       <r> -27.0425  1.0000</r>
       <r> -27.0291  1.0000</r>
       <r> -27.0250  1.0000</r>
       <r> -27.0065  1.0000</r>
       <r> -26.9648  1.0000</r>
       <r> -26.9594  1.0000</r>
       <r> -26.9582  1.0000</r>
       <r> -26.9577  1.0000</r>
       <r> -26.9553  1.0000</r>
       <r> -26.9438  1.0000</r>
       <r> -26.9346  1.0000</r>
       <r> -26.9278  1.0000</r>
       <r> -26.9277  1.0000</r>
       <r> -26.9249  1.0000</r>
       <r> -26.9241  1.0000</r>
       <r> -26.9239  1.0000</r>
       <r> -26.9200  1.0000</r>
       <r> -26.9198  1.0000</r>
       <r> -26.9188  1.0000</r>
       <r> -26.9186  1.0000</r>
       <r> -26.9168  1.0000</r>
       <r> -26.9167  1.0000</r>
       <r> -26.9071  1.0000</r>
       <r> -26.9070  1.0000</r>
       <r> -26.9061  1.0000</r>
       <r> -26.8935  1.0000</r>
       <r> -26.8896  1.0000</r>
       <r> -26.8731  1.0000</r>
       <r> -26.8730  1.0000</r>
       <r> -26.8722  1.0000</r>
       <r> -26.8720  1.0000</r>
       <r> -26.8656  1.0000</r>
       <r> -26.8654  1.0000</r>
       <r> -26.8636  1.0000</r>
       <r> -26.8613  1.0000</r>
       <r> -26.8612  1.0000</r>
       <r> -26.8610  1.0000</r>
       <r> -26.8553  1.0000</r>
       <r> -26.8553  1.0000</r>
       <r> -26.8547  1.0000</r>
       <r> -26.8547  1.0000</r>
       <r> -26.8538  1.0000</r>
       <r> -26.8536  1.0000</r>
       <r> -26.8523  1.0000</r>
       <r> -26.8482  1.0000</r>
       <r> -26.8461  1.0000</r>
       <r> -26.8459  1.0000</r>
       <r> -26.8386  1.0000</r>
       <r> -26.7939  1.0000</r>
       <r> -26.7937  1.0000</r>
       <r> -26.7932  1.0000</r>
       <r> -26.7864  1.0000</r>
       <r> -26.7841  1.0000</r>
       <r> -26.7840  1.0000</r>
       <r> -26.7837  1.0000</r>
       <r> -26.7832  1.0000</r>
       <r> -26.7768  1.0000</r>
       <r> -26.7673  1.0000</r>
       <r> -26.7661  1.0000</r>
       <r> -26.7413  1.0000</r>
       <r> -26.7293  1.0000</r>
       <r>  -0.1480  1.0000</r>
       <r>   1.7309  1.0000</r>
       <r>   1.7312  1.0000</r>
       <r>   1.7834  1.0000</r>
       <r>   2.1056  1.0000</r>
       <r>   2.1187  1.0000</r>
       <r>   2.6409  1.0000</r>
       <r>   2.6599  1.0000</r>
       <r>   2.8540  1.0000</r>
       <r>   3.0442  1.0000</r>
       <r>   3.0444  1.0000</r>
       <r>   3.1892  1.0000</r>
       <r>   3.1894  1.0000</r>
       <r>   3.2010  1.0000</r>
       <r>   3.2012  1.0000</r>
       <r>   3.3230  1.0000</r>
       <r>   3.3411  1.0000</r>
       <r>   3.3414  1.0000</r>
       <r>   3.3500  1.0000</r>
       <r>   3.3503  1.0000</r>
       <r>   3.3551  1.0000</r>
       <r>   3.3554  1.0000</r>
       <r>   4.0857  1.0000</r>
       <r>   4.1700  1.0000</r>
       <r>   4.1789  1.0000</r>
       <r>   4.2238  1.0000</r>
       <r>   4.2322  1.0000</r>
       <r>   4.2400  1.0000</r>
       <r>   4.2613  1.0000</r>
       <r>   4.2698  1.0000</r>
       <r>   4.3393  1.0000</r>
       <r>   4.3731  1.0000</r>
       <r>   4.3834  1.0000</r>
       <r>   4.4142  1.0000</r>
       <r>   4.4397  1.0000</r>
       <r>   4.4566  1.0000</r>
       <r>   4.4572  1.0000</r>
       <r>   4.4591  1.0000</r>
       <r>   4.4598  1.0000</r>
       <r>   4.5338  1.0000</r>
       <r>   4.5636  1.0000</r>
       <r>   4.6542  1.0000</r>
       <r>   4.6614  1.0000</r>
       <r>   4.6726  1.0000</r>
       <r>   4.6842  1.0000</r>
       <r>   4.8256  1.0000</r>
       <r>   5.0973  1.0000</r>
       <r>   5.0979  1.0000</r>
       <r>   5.1049  1.0000</r>
       <r>   5.1056  1.0000</r>
       <r>   5.2253  1.0000</r>
       <r>   5.2264  1.0000</r>
       <r>   5.2489  1.0000</r>
       <r>   5.2629  1.0000</r>
       <r>   5.2635  1.0000</r>
       <r>   5.2640  1.0000</r>
       <r>   5.2647  1.0000</r>
       <r>   5.2676  1.0000</r>
       <r>   5.2740  1.0000</r>
       <r>   5.2932  1.0000</r>
       <r>   5.3176  1.0000</r>
       <r>   5.3187  1.0000</r>
       <r>   5.3210  1.0000</r>
       <r>   5.3218  1.0000</r>
       <r>   5.3224  1.0000</r>
       <r>   5.3438  1.0000</r>
       <r>   5.3450  1.0000</r>
       <r>   5.3797  1.0000</r>
       <r>   5.7250  1.0000</r>
       <r>   5.7252  1.0000</r>
       <r>   5.7280  1.0000</r>
       <r>   5.7282  1.0000</r>
       <r>   6.0235  0.0000</r>
       <r>   6.0261  0.0000</r>
       <r>   6.1020  0.0000</r>
       <r>   6.1471  0.0000</r>
       <r>   6.2673  0.0000</r>
       <r>   6.3152  0.0000</r>
       <r>   6.3897  0.0000</r>
       <r>   6.3903  0.0000</r>
       <r>   6.3905  0.0000</r>
       <r>   6.3911  0.0000</r>
       <r>   6.4222  0.0000</r>
       <r>   6.4228  0.0000</r>
       <r>   6.4487  0.0000</r>
       <r>   6.4923  0.0000</r>
       <r>   6.4938  0.0000</r>
       <r>   6.5431  0.0000</r>
       <r>   6.5608  0.0000</r>
       <r>   6.5628  0.0000</r>
       <r>   6.5634  0.0000</r>
       <r>   6.5671  0.0000</r>
       <r>   6.5673  0.0000</r>
       <r>   6.5927  0.0000</r>
       <r>   6.6040  0.0000</r>
       <r>   6.6045  0.0000</r>
       <r>   6.6443  0.0000</r>
       <r>   6.6444  0.0000</r>
       <r>   6.7019  0.0000</r>
       <r>   6.7036  0.0000</r>
       <r>   6.7252  0.0000</r>
       <r>   6.7361  0.0000</r>
       <r>   6.7427  0.0000</r>
       <r>   6.7715  0.0000</r>
       <r>   6.7764  0.0000</r>
       <r>   6.7810  0.0000</r>
       <r>   6.7893  0.0000</r>
       <r>   6.7898  0.0000</r>
      </set>
      <set comment="kpoint 3">
       <r> -27.4808  1.0000</r>
       <r> -27.3854  1.0000</r>
       <r> -27.3614  1.0000</r>
       <r> -27.3613  1.0000</r>
       <r> -27.3301  1.0000</r>
       <r> -27.3299  1.0000</r>
       <r> -27.3258  1.0000</r>
       <r> -27.3257  1.0000</r>
       <r> -27.3240  1.0000</r>
       <r> -27.3239  1.0000</r>
       <r> -27.3191  1.0000</r>
       <r> -27.3190  1.0000</r>
       <r> -27.3186  1.0000</r>
       <r> -27.3186  1.0000</r>
       <r> -27.2752  1.0000</r>
       <r> -27.2548  1.0000</r>
       <r> -27.2546  1.0000</r>
       <r> -27.2523  1.0000</r>
       <r> -27.2522  1.0000</r>
       <r> -27.2421  1.0000</r>
       <r> -27.2408  1.0000</r>
       <r> -27.2340  1.0000</r>
       <r> -27.2302  1.0000</r>
       <r> -27.2296  1.0000</r>
       <r> -27.2264  1.0000</r>
       <r> -27.2142  1.0000</r>
       <r> -27.2128  1.0000</r>
       <r> -27.2126  1.0000</r>
       <r> -27.1500  1.0000</r>
       <r> -27.1494  1.0000</r>
       <r> -27.1483  1.0000</r>
       <r> -27.1372  1.0000</r>
       <r> -27.1345  1.0000</r>
       <r> -27.1273  1.0000</r>
       <r> -27.1231  1.0000</r>
       <r> -27.1170  1.0000</r>
       <r> -27.1167  1.0000</r>
       <r> -27.1152  1.0000</r>
       <r> -27.1138  1.0000</r>
       <r> -27.0614  1.0000</r>
       <r> -27.0602  1.0000</r>
       <r> -27.0581  1.0000</r>
       <r> -27.0578  1.0000</r>
       <r> -27.0539  1.0000</r>
       <r> -27.0537  1.0000</r>
       <r> -27.0506  1.0000</r>
       <r> -27.0389  1.0000</r>
       <r> -27.0382  1.0000</r>
       <r> -26.9962  1.0000</r>
       <r> -26.9918  1.0000</r>
       <r> -26.9814  1.0000</r>
       <r> -26.9737  1.0000</r>
       <r> -26.9705  1.0000</r>
       <r> -26.9511  1.0000</r>
       <r> -26.9510  1.0000</r>
       <r> -26.9456  1.0000</r>
       <r> -26.9455  1.0000</r>
       <r> -26.9421  1.0000</r>
       <r> -26.9335  1.0000</r>
       <r> -26.9263  1.0000</r>
       <r> -26.9245  1.0000</r>
       <r> -26.9230  1.0000</r>
       <r> -26.9227  1.0000</r>
       <r> -26.9225  1.0000</r>
       <r> -26.9213  1.0000</r>
       <r> -26.9213  1.0000</r>
       <r> -26.9210  1.0000</r>
       <r> -26.9209  1.0000</r>
       <r> -26.9206  1.0000</r>
       <r> -26.9141  1.0000</r>
       <r> -26.9098  1.0000</r>
       <r> -26.9043  1.0000</r>
       <r> -26.8911  1.0000</r>
       <r> -26.8910  1.0000</r>
       <r> -26.8808  1.0000</r>
       <r> -26.8805  1.0000</r>
       <r> -26.8805  1.0000</r>
       <r> -26.8712  1.0000</r>
       <r> -26.8711  1.0000</r>
       <r> -26.8660  1.0000</r>
       <r> -26.8659  1.0000</r>
       <r> -26.8579  1.0000</r>
       <r> -26.8579  1.0000</r>
       <r> -26.8567  1.0000</r>
       <r> -26.8566  1.0000</r>
       <r> -26.8547  1.0000</r>
       <r> -26.8545  1.0000</r>
       <r> -26.8544  1.0000</r>
       <r> -26.8531  1.0000</r>
       <r> -26.8497  1.0000</r>
       <r> -26.8496  1.0000</r>
       <r> -26.8494  1.0000</r>
       <r> -26.8308  1.0000</r>
       <r> -26.8306  1.0000</r>
       <r> -26.8232  1.0000</r>
       <r> -26.8152  1.0000</r>
       <r> -26.8123  1.0000</r>
       <r> -26.8122  1.0000</r>
       <r> -26.8092  1.0000</r>
       <r> -26.7923  1.0000</r>
       <r> -26.7915  1.0000</r>
       <r> -26.7913  1.0000</r>
       <r> -26.7898  1.0000</r>
       <r> -26.7874  1.0000</r>
       <r> -26.7743  1.0000</r>
       <r> -26.7717  1.0000</r>
       <r> -26.7561  1.0000</r>
       <r> -26.7331  1.0000</r>
       <r>   0.0400  1.0000</r>
       <r>   1.2409  1.0000</r>
       <r>   1.8875  1.0000</r>
       <r>   1.8877  1.0000</r>
       <r>   1.9487  1.0000</r>
       <r>   1.9571  1.0000</r>
       <r>   2.7598  1.0000</r>
       <r>   2.7599  1.0000</r>
       <r>   2.9996  1.0000</r>
       <r>   3.0193  1.0000</r>
       <r>   3.1675  1.0000</r>
       <r>   3.1676  1.0000</r>
       <r>   3.1755  1.0000</r>
       <r>   3.1756  1.0000</r>
       <r>   3.2731  1.0000</r>
       <r>   3.3922  1.0000</r>
       <r>   3.3926  1.0000</r>
       <r>   3.4651  1.0000</r>
       <r>   3.4862  1.0000</r>
       <r>   3.4865  1.0000</r>
       <r>   3.4986  1.0000</r>
       <r>   3.4989  1.0000</r>
       <r>   3.9504  1.0000</r>
       <r>   4.1288  1.0000</r>
       <r>   4.1404  1.0000</r>
       <r>   4.1448  1.0000</r>
       <r>   4.1718  1.0000</r>
       <r>   4.1724  1.0000</r>
       <r>   4.1736  1.0000</r>
       <r>   4.1742  1.0000</r>
       <r>   4.1910  1.0000</r>
       <r>   4.1964  1.0000</r>
       <r>   4.2026  1.0000</r>
       <r>   4.2231  1.0000</r>
       <r>   4.2387  1.0000</r>
       <r>   4.3254  1.0000</r>
       <r>   4.3515  1.0000</r>
       <r>   4.3579  1.0000</r>
       <r>   4.3665  1.0000</r>
       <r>   4.4337  1.0000</r>
       <r>   4.4604  1.0000</r>
       <r>   4.7701  1.0000</r>
       <r>   4.7759  1.0000</r>
       <r>   4.7822  1.0000</r>
       <r>   4.7949  1.0000</r>
       <r>   5.1517  1.0000</r>
       <r>   5.1589  1.0000</r>
       <r>   5.1734  1.0000</r>
       <r>   5.1830  1.0000</r>
       <r>   5.1841  1.0000</r>
       <r>   5.2315  1.0000</r>
       <r>   5.2549  1.0000</r>
       <r>   5.2628  1.0000</r>
       <r>   5.2778  1.0000</r>
       <r>   5.2788  1.0000</r>
       <r>   5.2820  1.0000</r>
       <r>   5.2830  1.0000</r>
       <r>   5.3359  1.0000</r>
       <r>   5.3364  1.0000</r>
       <r>   5.3370  1.0000</r>
       <r>   5.3379  1.0000</r>
       <r>   5.3591  1.0000</r>
       <r>   5.3599  1.0000</r>
       <r>   5.3615  1.0000</r>
       <r>   5.3627  1.0000</r>
       <r>   5.4354  1.0000</r>
       <r>   5.4368  1.0000</r>
       <r>   5.5363  1.0000</r>
       <r>   5.7489  1.0000</r>
       <r>   5.7495  1.0000</r>
       <r>   5.7556  1.0000</r>
       <r>   5.7560  1.0000</r>
       <r>   5.8879  1.0000</r>
       <r>   5.8901  1.0000</r>
       <r>   6.0900  0.0000</r>
       <r>   6.1320  0.0000</r>
       <r>   6.2396  0.0000</r>
       <r>   6.2401  0.0000</r>
       <r>   6.2611  0.0000</r>
       <r>   6.2616  0.0000</r>
       <r>   6.3112  0.0000</r>
       <r>   6.3193  0.0000</r>
       <r>   6.3561  0.0000</r>
       <r>   6.3750  0.0000</r>
       <r>   6.3753  0.0000</r>
       <r>   6.3770  0.0000</r>
       <r>   6.3965  0.0000</r>
       <r>   6.4174  0.0000</r>
       <r>   6.4403  0.0000</r>
       <r>   6.4409  0.0000</r>
       <r>   6.4434  0.0000</r>
       <r>   6.4765  0.0000</r>
       <r>   6.4770  0.0000</r>
       <r>   6.5054  0.0000</r>
       <r>   6.5193  0.0000</r>
       <r>   6.5620  0.0000</r>
       <r>   6.5621  0.0000</r>
       <r>   6.6414  0.0000</r>
       <r>   6.7070  0.0000</r>
       <r>   6.7125  0.0000</r>
       <r>   6.7331  0.0000</r>
       <r>   6.7363  0.0000</r>
       <r>   6.7365  0.0000</r>
       <r>   6.7396  0.0000</r>
       <r>   6.7753  0.0000</r>
       <r>   6.9008  0.0000</r>
       <r>   6.9032  0.0000</r>
       <r>   6.9700  0.0000</r>
      </set>
      <set comment="kpoint 4">
       <r> -27.4566  1.0000</r>
       <r> -27.4243  1.0000</r>
       <r> -27.3769  1.0000</r>
       <r> -27.3768  1.0000</r>
       <r> -27.3371  1.0000</r>
       <r> -27.3369  1.0000</r>
       <r> -27.3312  1.0000</r>
       <r> -27.3311  1.0000</r>
       <r> -27.3301  1.0000</r>
       <r> -27.3300  1.0000</r>
       <r> -27.3284  1.0000</r>
       <r> -27.3283  1.0000</r>
       <r> -27.3277  1.0000</r>
       <r> -27.3276  1.0000</r>
       <r> -27.2955  1.0000</r>
       <r> -27.2434  1.0000</r>
       <r> -27.2432  1.0000</r>
       <r> -27.2425  1.0000</r>
       <r> -27.2423  1.0000</r>
       <r> -27.2408  1.0000</r>
       <r> -27.2401  1.0000</r>
       <r> -27.2359  1.0000</r>
       <r> -27.2354  1.0000</r>
       <r> -27.2091  1.0000</r>
       <r> -27.2074  1.0000</r>
       <r> -27.1909  1.0000</r>
       <r> -27.1822  1.0000</r>
       <r> -27.1818  1.0000</r>
       <r> -27.1738  1.0000</r>
       <r> -27.1716  1.0000</r>
       <r> -27.1662  1.0000</r>
       <r> -27.1618  1.0000</r>
       <r> -27.1613  1.0000</r>
       <r> -27.1348  1.0000</r>
       <r> -27.1314  1.0000</r>
       <r> -27.1303  1.0000</r>
       <r> -27.1274  1.0000</r>
       <r> -27.0839  1.0000</r>
       <r> -27.0815  1.0000</r>
       <r> -27.0545  1.0000</r>
       <r> -27.0523  1.0000</r>
       <r> -27.0326  1.0000</r>
       <r> -27.0292  1.0000</r>
       <r> -27.0215  1.0000</r>
       <r> -27.0212  1.0000</r>
       <r> -27.0161  1.0000</r>
       <r> -27.0158  1.0000</r>
       <r> -27.0046  1.0000</r>
       <r> -26.9991  1.0000</r>
       <r> -26.9844  1.0000</r>
       <r> -26.9840  1.0000</r>
       <r> -26.9838  1.0000</r>
       <r> -26.9780  1.0000</r>
       <r> -26.9778  1.0000</r>
       <r> -26.9762  1.0000</r>
       <r> -26.9658  1.0000</r>
       <r> -26.9612  1.0000</r>
       <r> -26.9512  1.0000</r>
       <r> -26.9383  1.0000</r>
       <r> -26.9338  1.0000</r>
       <r> -26.9260  1.0000</r>
       <r> -26.9252  1.0000</r>
       <r> -26.9250  1.0000</r>
       <r> -26.9244  1.0000</r>
       <r> -26.9243  1.0000</r>
       <r> -26.9216  1.0000</r>
       <r> -26.9215  1.0000</r>
       <r> -26.9080  1.0000</r>
       <r> -26.9066  1.0000</r>
       <r> -26.8852  1.0000</r>
       <r> -26.8850  1.0000</r>
       <r> -26.8847  1.0000</r>
       <r> -26.8837  1.0000</r>
       <r> -26.8817  1.0000</r>
       <r> -26.8775  1.0000</r>
       <r> -26.8674  1.0000</r>
       <r> -26.8673  1.0000</r>
       <r> -26.8666  1.0000</r>
       <r> -26.8665  1.0000</r>
       <r> -26.8648  1.0000</r>
       <r> -26.8633  1.0000</r>
       <r> -26.8632  1.0000</r>
       <r> -26.8619  1.0000</r>
       <r> -26.8618  1.0000</r>
       <r> -26.8597  1.0000</r>
       <r> -26.8597  1.0000</r>
       <r> -26.8505  1.0000</r>
       <r> -26.8504  1.0000</r>
       <r> -26.8500  1.0000</r>
       <r> -26.8493  1.0000</r>
       <r> -26.8487  1.0000</r>
       <r> -26.8487  1.0000</r>
       <r> -26.8467  1.0000</r>
       <r> -26.8420  1.0000</r>
       <r> -26.8390  1.0000</r>
       <r> -26.8389  1.0000</r>
       <r> -26.8188  1.0000</r>
       <r> -26.8157  1.0000</r>
       <r> -26.8155  1.0000</r>
       <r> -26.8023  1.0000</r>
       <r> -26.8023  1.0000</r>
       <r> -26.8021  1.0000</r>
       <r> -26.8020  1.0000</r>
       <r> -26.8002  1.0000</r>
       <r> -26.7930  1.0000</r>
       <r> -26.7860  1.0000</r>
       <r> -26.7468  1.0000</r>
       <r> -26.7389  1.0000</r>
       <r>   0.3444  1.0000</r>
       <r>   0.7516  1.0000</r>
       <r>   1.8712  1.0000</r>
       <r>   1.8741  1.0000</r>
       <r>   2.1321  1.0000</r>
       <r>   2.1323  1.0000</r>
       <r>   2.4371  1.0000</r>
       <r>   2.4373  1.0000</r>
       <r>   3.1637  1.0000</r>
       <r>   3.1638  1.0000</r>
       <r>   3.1666  1.0000</r>
       <r>   3.1667  1.0000</r>
       <r>   3.3928  1.0000</r>
       <r>   3.4039  1.0000</r>
       <r>   3.4043  1.0000</r>
       <r>   3.4121  1.0000</r>
       <r>   3.5553  1.0000</r>
       <r>   3.6770  1.0000</r>
       <r>   3.6773  1.0000</r>
       <r>   3.6795  1.0000</r>
       <r>   3.6865  1.0000</r>
       <r>   3.6868  1.0000</r>
       <r>   3.7858  1.0000</r>
       <r>   3.8038  1.0000</r>
       <r>   3.8158  1.0000</r>
       <r>   3.9079  1.0000</r>
       <r>   3.9083  1.0000</r>
       <r>   3.9137  1.0000</r>
       <r>   3.9141  1.0000</r>
       <r>   3.9267  1.0000</r>
       <r>   4.1242  1.0000</r>
       <r>   4.2341  1.0000</r>
       <r>   4.2489  1.0000</r>
       <r>   4.2552  1.0000</r>
       <r>   4.2648  1.0000</r>
       <r>   4.2660  1.0000</r>
       <r>   4.2907  1.0000</r>
       <r>   4.3329  1.0000</r>
       <r>   4.3544  1.0000</r>
       <r>   4.4413  1.0000</r>
       <r>   4.4457  1.0000</r>
       <r>   4.8440  1.0000</r>
       <r>   4.8483  1.0000</r>
       <r>   4.9008  1.0000</r>
       <r>   4.9193  1.0000</r>
       <r>   5.0300  1.0000</r>
       <r>   5.0492  1.0000</r>
       <r>   5.1592  1.0000</r>
       <r>   5.1604  1.0000</r>
       <r>   5.1673  1.0000</r>
       <r>   5.1772  1.0000</r>
       <r>   5.2728  1.0000</r>
       <r>   5.3236  1.0000</r>
       <r>   5.3245  1.0000</r>
       <r>   5.3321  1.0000</r>
       <r>   5.3330  1.0000</r>
       <r>   5.3752  1.0000</r>
       <r>   5.3761  1.0000</r>
       <r>   5.3833  1.0000</r>
       <r>   5.3840  1.0000</r>
       <r>   5.3846  1.0000</r>
       <r>   5.3854  1.0000</r>
       <r>   5.3856  1.0000</r>
       <r>   5.3869  1.0000</r>
       <r>   5.5414  1.0000</r>
       <r>   5.5649  1.0000</r>
       <r>   5.5664  1.0000</r>
       <r>   5.7234  1.0000</r>
       <r>   5.7253  1.0000</r>
       <r>   5.7706  1.0000</r>
       <r>   5.9379  0.9995</r>
       <r>   5.9382  0.9994</r>
       <r>   5.9577  0.6840</r>
       <r>   5.9602  0.5523</r>
       <r>   5.9604  0.5398</r>
       <r>   6.0425  0.0000</r>
       <r>   6.1262  0.0000</r>
       <r>   6.1552  0.0000</r>
       <r>   6.1556  0.0000</r>
       <r>   6.1631  0.0000</r>
       <r>   6.1635  0.0000</r>
       <r>   6.1649  0.0000</r>
       <r>   6.2058  0.0000</r>
       <r>   6.2083  0.0000</r>
       <r>   6.2087  0.0000</r>
       <r>   6.2380  0.0000</r>
       <r>   6.2384  0.0000</r>
       <r>   6.2421  0.0000</r>
       <r>   6.3784  0.0000</r>
       <r>   6.4356  0.0000</r>
       <r>   6.4359  0.0000</r>
       <r>   6.4578  0.0000</r>
       <r>   6.4618  0.0000</r>
       <r>   6.5125  0.0000</r>
       <r>   6.5126  0.0000</r>
       <r>   6.5327  0.0000</r>
       <r>   6.5769  0.0000</r>
       <r>   6.6096  0.0000</r>
       <r>   6.6517  0.0000</r>
       <r>   6.6936  0.0000</r>
       <r>   6.7064  0.0000</r>
       <r>   6.7188  0.0000</r>
       <r>   6.8097  0.0000</r>
       <r>   6.8868  0.0000</r>
       <r>   6.8870  0.0000</r>
       <r>   6.9456  0.0000</r>
       <r>   7.0807  0.0000</r>
       <r>   7.0857  0.0000</r>
      </set>
      <set comment="kpoint 5">
       <r> -27.4958  1.0000</r>
       <r> -27.3418  1.0000</r>
       <r> -27.3325  1.0000</r>
       <r> -27.3324  1.0000</r>
       <r> -27.3165  1.0000</r>
       <r> -27.3162  1.0000</r>
       <r> -27.3126  1.0000</r>
       <r> -27.3126  1.0000</r>
       <r> -27.3102  1.0000</r>
       <r> -27.3101  1.0000</r>
       <r> -27.3080  1.0000</r>
       <r> -27.3079  1.0000</r>
       <r> -27.3077  1.0000</r>
       <r> -27.3076  1.0000</r>
       <r> -27.2732  1.0000</r>
       <r> -27.2730  1.0000</r>
       <r> -27.2716  1.0000</r>
       <r> -27.2709  1.0000</r>
       <r> -27.2701  1.0000</r>
       <r> -27.2699  1.0000</r>
       <r> -27.2520  1.0000</r>
       <r> -27.2519  1.0000</r>
       <r> -27.2518  1.0000</r>
       <r> -27.2365  1.0000</r>
       <r> -27.2237  1.0000</r>
       <r> -27.2209  1.0000</r>
       <r> -27.2111  1.0000</r>
       <r> -27.2084  1.0000</r>
       <r> -27.1513  1.0000</r>
       <r> -27.1508  1.0000</r>
       <r> -27.1443  1.0000</r>
       <r> -27.1437  1.0000</r>
       <r> -27.1189  1.0000</r>
       <r> -27.1138  1.0000</r>
       <r> -27.1132  1.0000</r>
       <r> -27.1100  1.0000</r>
       <r> -27.1003  1.0000</r>
       <r> -27.0972  1.0000</r>
       <r> -27.0928  1.0000</r>
       <r> -27.0916  1.0000</r>
       <r> -27.0862  1.0000</r>
       <r> -27.0861  1.0000</r>
       <r> -27.0858  1.0000</r>
       <r> -27.0855  1.0000</r>
       <r> -27.0839  1.0000</r>
       <r> -27.0836  1.0000</r>
       <r> -27.0437  1.0000</r>
       <r> -27.0425  1.0000</r>
       <r> -27.0290  1.0000</r>
       <r> -27.0250  1.0000</r>
       <r> -27.0065  1.0000</r>
       <r> -26.9647  1.0000</r>
       <r> -26.9593  1.0000</r>
       <r> -26.9582  1.0000</r>
       <r> -26.9577  1.0000</r>
       <r> -26.9554  1.0000</r>
       <r> -26.9438  1.0000</r>
       <r> -26.9346  1.0000</r>
       <r> -26.9278  1.0000</r>
       <r> -26.9276  1.0000</r>
       <r> -26.9249  1.0000</r>
       <r> -26.9241  1.0000</r>
       <r> -26.9240  1.0000</r>
       <r> -26.9199  1.0000</r>
       <r> -26.9198  1.0000</r>
       <r> -26.9188  1.0000</r>
       <r> -26.9186  1.0000</r>
       <r> -26.9169  1.0000</r>
       <r> -26.9167  1.0000</r>
       <r> -26.9071  1.0000</r>
       <r> -26.9069  1.0000</r>
       <r> -26.9062  1.0000</r>
       <r> -26.8934  1.0000</r>
       <r> -26.8896  1.0000</r>
       <r> -26.8732  1.0000</r>
       <r> -26.8730  1.0000</r>
       <r> -26.8722  1.0000</r>
       <r> -26.8720  1.0000</r>
       <r> -26.8656  1.0000</r>
       <r> -26.8654  1.0000</r>
       <r> -26.8635  1.0000</r>
       <r> -26.8613  1.0000</r>
       <r> -26.8612  1.0000</r>
       <r> -26.8609  1.0000</r>
       <r> -26.8553  1.0000</r>
       <r> -26.8553  1.0000</r>
       <r> -26.8547  1.0000</r>
       <r> -26.8547  1.0000</r>
       <r> -26.8538  1.0000</r>
       <r> -26.8536  1.0000</r>
       <r> -26.8524  1.0000</r>
       <r> -26.8482  1.0000</r>
       <r> -26.8461  1.0000</r>
       <r> -26.8459  1.0000</r>
       <r> -26.8386  1.0000</r>
       <r> -26.7939  1.0000</r>
       <r> -26.7937  1.0000</r>
       <r> -26.7932  1.0000</r>
       <r> -26.7864  1.0000</r>
       <r> -26.7841  1.0000</r>
       <r> -26.7840  1.0000</r>
       <r> -26.7838  1.0000</r>
       <r> -26.7832  1.0000</r>
       <r> -26.7768  1.0000</r>
       <r> -26.7673  1.0000</r>
       <r> -26.7661  1.0000</r>
       <r> -26.7413  1.0000</r>
       <r> -26.7294  1.0000</r>
       <r>  -0.1480  1.0000</r>
       <r>   1.7309  1.0000</r>
       <r>   1.7312  1.0000</r>
       <r>   1.7834  1.0000</r>
       <r>   2.1056  1.0000</r>
       <r>   2.1187  1.0000</r>
       <r>   2.6408  1.0000</r>
       <r>   2.6599  1.0000</r>
       <r>   2.8541  1.0000</r>
       <r>   3.0442  1.0000</r>
       <r>   3.0444  1.0000</r>
       <r>   3.1892  1.0000</r>
       <r>   3.1894  1.0000</r>
       <r>   3.2010  1.0000</r>
       <r>   3.2012  1.0000</r>
       <r>   3.3230  1.0000</r>
       <r>   3.3412  1.0000</r>
       <r>   3.3415  1.0000</r>
       <r>   3.3499  1.0000</r>
       <r>   3.3502  1.0000</r>
       <r>   3.3551  1.0000</r>
       <r>   3.3554  1.0000</r>
       <r>   4.0859  1.0000</r>
       <r>   4.1700  1.0000</r>
       <r>   4.1787  1.0000</r>
       <r>   4.2239  1.0000</r>
       <r>   4.2321  1.0000</r>
       <r>   4.2402  1.0000</r>
       <r>   4.2613  1.0000</r>
       <r>   4.2696  1.0000</r>
       <r>   4.3398  1.0000</r>
       <r>   4.3730  1.0000</r>
       <r>   4.3834  1.0000</r>
       <r>   4.4143  1.0000</r>
       <r>   4.4392  1.0000</r>
       <r>   4.4564  1.0000</r>
       <r>   4.4571  1.0000</r>
       <r>   4.4593  1.0000</r>
       <r>   4.4600  1.0000</r>
       <r>   4.5338  1.0000</r>
       <r>   4.5635  1.0000</r>
       <r>   4.6541  1.0000</r>
       <r>   4.6614  1.0000</r>
       <r>   4.6721  1.0000</r>
       <r>   4.6842  1.0000</r>
       <r>   4.8260  1.0000</r>
       <r>   5.0972  1.0000</r>
       <r>   5.0979  1.0000</r>
       <r>   5.1048  1.0000</r>
       <r>   5.1055  1.0000</r>
       <r>   5.2255  1.0000</r>
       <r>   5.2266  1.0000</r>
       <r>   5.2490  1.0000</r>
       <r>   5.2625  1.0000</r>
       <r>   5.2636  1.0000</r>
       <r>   5.2637  1.0000</r>
       <r>   5.2647  1.0000</r>
       <r>   5.2675  1.0000</r>
       <r>   5.2740  1.0000</r>
       <r>   5.2933  1.0000</r>
       <r>   5.3174  1.0000</r>
       <r>   5.3185  1.0000</r>
       <r>   5.3211  1.0000</r>
       <r>   5.3220  1.0000</r>
       <r>   5.3224  1.0000</r>
       <r>   5.3439  1.0000</r>
       <r>   5.3451  1.0000</r>
       <r>   5.3796  1.0000</r>
       <r>   5.7251  1.0000</r>
       <r>   5.7253  1.0000</r>
       <r>   5.7279  1.0000</r>
       <r>   5.7282  1.0000</r>
       <r>   6.0235  0.0000</r>
       <r>   6.0261  0.0000</r>
       <r>   6.1020  0.0000</r>
       <r>   6.1469  0.0000</r>
       <r>   6.2676  0.0000</r>
       <r>   6.3151  0.0000</r>
       <r>   6.3899  0.0000</r>
       <r>   6.3903  0.0000</r>
       <r>   6.3905  0.0000</r>
       <r>   6.3910  0.0000</r>
       <r>   6.4222  0.0000</r>
       <r>   6.4228  0.0000</r>
       <r>   6.4486  0.0000</r>
       <r>   6.4921  0.0000</r>
       <r>   6.4940  0.0000</r>
       <r>   6.5430  0.0000</r>
       <r>   6.5609  0.0000</r>
       <r>   6.5632  0.0000</r>
       <r>   6.5637  0.0000</r>
       <r>   6.5672  0.0000</r>
       <r>   6.5674  0.0000</r>
       <r>   6.5929  0.0000</r>
       <r>   6.6040  0.0000</r>
       <r>   6.6046  0.0000</r>
       <r>   6.6443  0.0000</r>
       <r>   6.6444  0.0000</r>
       <r>   6.7014  0.0000</r>
       <r>   6.7030  0.0000</r>
       <r>   6.7253  0.0000</r>
       <r>   6.7363  0.0000</r>
       <r>   6.7424  0.0000</r>
       <r>   6.7698  0.0000</r>
       <r>   6.7751  0.0000</r>
       <r>   6.7792  0.0000</r>
       <r>   6.7888  0.0000</r>
       <r>   6.7893  0.0000</r>
      </set>
      <set comment="kpoint 6">
       <r> -27.4858  1.0000</r>
       <r> -27.3610  1.0000</r>
       <r> -27.3609  1.0000</r>
       <r> -27.3461  1.0000</r>
       <r> -27.3461  1.0000</r>
       <r> -27.3460  1.0000</r>
       <r> -27.3459  1.0000</r>
       <r> -27.3195  1.0000</r>
       <r> -27.3195  1.0000</r>
       <r> -27.3116  1.0000</r>
       <r> -27.3115  1.0000</r>
       <r> -27.2900  1.0000</r>
       <r> -27.2899  1.0000</r>
       <r> -27.2897  1.0000</r>
       <r> -27.2896  1.0000</r>
       <r> -27.2856  1.0000</r>
       <r> -27.2853  1.0000</r>
       <r> -27.2549  1.0000</r>
       <r> -27.2549  1.0000</r>
       <r> -27.2396  1.0000</r>
       <r> -27.2328  1.0000</r>
       <r> -27.2326  1.0000</r>
       <r> -27.2326  1.0000</r>
       <r> -27.2323  1.0000</r>
       <r> -27.2290  1.0000</r>
       <r> -27.2289  1.0000</r>
       <r> -27.2172  1.0000</r>
       <r> -27.1778  1.0000</r>
       <r> -27.1775  1.0000</r>
       <r> -27.1481  1.0000</r>
       <r> -27.1475  1.0000</r>
       <r> -27.1314  1.0000</r>
       <r> -27.1312  1.0000</r>
       <r> -27.1302  1.0000</r>
       <r> -27.1291  1.0000</r>
       <r> -27.1215  1.0000</r>
       <r> -27.1120  1.0000</r>
       <r> -27.0852  1.0000</r>
       <r> -27.0852  1.0000</r>
       <r> -27.0836  1.0000</r>
       <r> -27.0811  1.0000</r>
       <r> -27.0811  1.0000</r>
       <r> -27.0655  1.0000</r>
       <r> -27.0652  1.0000</r>
       <r> -27.0650  1.0000</r>
       <r> -27.0647  1.0000</r>
       <r> -27.0561  1.0000</r>
       <r> -27.0054  1.0000</r>
       <r> -26.9997  1.0000</r>
       <r> -26.9869  1.0000</r>
       <r> -26.9867  1.0000</r>
       <r> -26.9704  1.0000</r>
       <r> -26.9703  1.0000</r>
       <r> -26.9568  1.0000</r>
       <r> -26.9567  1.0000</r>
       <r> -26.9395  1.0000</r>
       <r> -26.9388  1.0000</r>
       <r> -26.9387  1.0000</r>
       <r> -26.9385  1.0000</r>
       <r> -26.9384  1.0000</r>
       <r> -26.9300  1.0000</r>
       <r> -26.9294  1.0000</r>
       <r> -26.9291  1.0000</r>
       <r> -26.9290  1.0000</r>
       <r> -26.9289  1.0000</r>
       <r> -26.9229  1.0000</r>
       <r> -26.9225  1.0000</r>
       <r> -26.9108  1.0000</r>
       <r> -26.9107  1.0000</r>
       <r> -26.9037  1.0000</r>
       <r> -26.9035  1.0000</r>
       <r> -26.9034  1.0000</r>
       <r> -26.9033  1.0000</r>
       <r> -26.8810  1.0000</r>
       <r> -26.8806  1.0000</r>
       <r> -26.8739  1.0000</r>
       <r> -26.8738  1.0000</r>
       <r> -26.8737  1.0000</r>
       <r> -26.8736  1.0000</r>
       <r> -26.8714  1.0000</r>
       <r> -26.8648  1.0000</r>
       <r> -26.8646  1.0000</r>
       <r> -26.8645  1.0000</r>
       <r> -26.8644  1.0000</r>
       <r> -26.8576  1.0000</r>
       <r> -26.8576  1.0000</r>
       <r> -26.8557  1.0000</r>
       <r> -26.8557  1.0000</r>
       <r> -26.8459  1.0000</r>
       <r> -26.8401  1.0000</r>
       <r> -26.8400  1.0000</r>
       <r> -26.8399  1.0000</r>
       <r> -26.8397  1.0000</r>
       <r> -26.8369  1.0000</r>
       <r> -26.8365  1.0000</r>
       <r> -26.8069  1.0000</r>
       <r> -26.8068  1.0000</r>
       <r> -26.8048  1.0000</r>
       <r> -26.8047  1.0000</r>
       <r> -26.7939  1.0000</r>
       <r> -26.7938  1.0000</r>
       <r> -26.7882  1.0000</r>
       <r> -26.7880  1.0000</r>
       <r> -26.7720  1.0000</r>
       <r> -26.7666  1.0000</r>
       <r> -26.7664  1.0000</r>
       <r> -26.7610  1.0000</r>
       <r> -26.7319  1.0000</r>
       <r>  -0.0228  1.0000</r>
       <r>   1.5516  1.0000</r>
       <r>   1.5520  1.0000</r>
       <r>   1.8357  1.0000</r>
       <r>   1.8360  1.0000</r>
       <r>   2.5092  1.0000</r>
       <r>   2.5094  1.0000</r>
       <r>   2.9428  1.0000</r>
       <r>   2.9430  1.0000</r>
       <r>   2.9432  1.0000</r>
       <r>   2.9433  1.0000</r>
       <r>   3.1138  1.0000</r>
       <r>   3.1142  1.0000</r>
       <r>   3.3821  1.0000</r>
       <r>   3.3826  1.0000</r>
       <r>   3.3827  1.0000</r>
       <r>   3.3829  1.0000</r>
       <r>   3.4126  1.0000</r>
       <r>   3.4130  1.0000</r>
       <r>   3.4132  1.0000</r>
       <r>   3.4133  1.0000</r>
       <r>   3.4185  1.0000</r>
       <r>   4.0490  1.0000</r>
       <r>   4.0492  1.0000</r>
       <r>   4.1710  1.0000</r>
       <r>   4.2065  1.0000</r>
       <r>   4.2164  1.0000</r>
       <r>   4.2169  1.0000</r>
       <r>   4.2417  1.0000</r>
       <r>   4.2422  1.0000</r>
       <r>   4.2489  1.0000</r>
       <r>   4.2523  1.0000</r>
       <r>   4.2647  1.0000</r>
       <r>   4.2655  1.0000</r>
       <r>   4.2842  1.0000</r>
       <r>   4.2847  1.0000</r>
       <r>   4.3134  1.0000</r>
       <r>   4.3141  1.0000</r>
       <r>   4.4010  1.0000</r>
       <r>   4.5188  1.0000</r>
       <r>   4.5198  1.0000</r>
       <r>   4.5846  1.0000</r>
       <r>   4.6659  1.0000</r>
       <r>   4.8149  1.0000</r>
       <r>   4.9686  1.0000</r>
       <r>   4.9694  1.0000</r>
       <r>   5.1864  1.0000</r>
       <r>   5.1878  1.0000</r>
       <r>   5.2185  1.0000</r>
       <r>   5.2194  1.0000</r>
       <r>   5.2200  1.0000</r>
       <r>   5.2204  1.0000</r>
       <r>   5.2346  1.0000</r>
       <r>   5.2348  1.0000</r>
       <r>   5.2432  1.0000</r>
       <r>   5.2442  1.0000</r>
       <r>   5.3149  1.0000</r>
       <r>   5.3151  1.0000</r>
       <r>   5.3155  1.0000</r>
       <r>   5.3169  1.0000</r>
       <r>   5.3197  1.0000</r>
       <r>   5.3209  1.0000</r>
       <r>   5.3864  1.0000</r>
       <r>   5.3876  1.0000</r>
       <r>   5.3879  1.0000</r>
       <r>   5.3890  1.0000</r>
       <r>   5.4083  1.0000</r>
       <r>   5.4091  1.0000</r>
       <r>   5.7325  1.0000</r>
       <r>   5.7332  1.0000</r>
       <r>   5.7403  1.0000</r>
       <r>   5.7404  1.0000</r>
       <r>   5.9264  1.0000</r>
       <r>   5.9287  1.0000</r>
       <r>   6.1040  0.0000</r>
       <r>   6.1105  0.0000</r>
       <r>   6.3297  0.0000</r>
       <r>   6.3309  0.0000</r>
       <r>   6.3315  0.0000</r>
       <r>   6.3320  0.0000</r>
       <r>   6.3349  0.0000</r>
       <r>   6.3352  0.0000</r>
       <r>   6.3357  0.0000</r>
       <r>   6.3362  0.0000</r>
       <r>   6.3641  0.0000</r>
       <r>   6.3838  0.0000</r>
       <r>   6.3894  0.0000</r>
       <r>   6.3944  0.0000</r>
       <r>   6.3955  0.0000</r>
       <r>   6.4183  0.0000</r>
       <r>   6.4188  0.0000</r>
       <r>   6.4859  0.0000</r>
       <r>   6.5580  0.0000</r>
       <r>   6.5580  0.0000</r>
       <r>   6.6721  0.0000</r>
       <r>   6.6732  0.0000</r>
       <r>   6.6923  0.0000</r>
       <r>   6.6933  0.0000</r>
       <r>   6.7164  0.0000</r>
       <r>   6.7164  0.0000</r>
       <r>   6.7271  0.0000</r>
       <r>   6.7285  0.0000</r>
       <r>   6.8021  0.0000</r>
       <r>   6.8025  0.0000</r>
       <r>   6.8028  0.0000</r>
       <r>   6.8031  0.0000</r>
       <r>   6.8440  0.0000</r>
       <r>   6.8474  0.0000</r>
      </set>
      <set comment="kpoint 7">
       <r> -27.4662  1.0000</r>
       <r> -27.4022  1.0000</r>
       <r> -27.3727  1.0000</r>
       <r> -27.3681  1.0000</r>
       <r> -27.3681  1.0000</r>
       <r> -27.3515  1.0000</r>
       <r> -27.3515  1.0000</r>
       <r> -27.3351  1.0000</r>
       <r> -27.3351  1.0000</r>
       <r> -27.3148  1.0000</r>
       <r> -27.3148  1.0000</r>
       <r> -27.3049  1.0000</r>
       <r> -27.3048  1.0000</r>
       <r> -27.2940  1.0000</r>
       <r> -27.2847  1.0000</r>
       <r> -27.2744  1.0000</r>
       <r> -27.2743  1.0000</r>
       <r> -27.2638  1.0000</r>
       <r> -27.2566  1.0000</r>
       <r> -27.2501  1.0000</r>
       <r> -27.2187  1.0000</r>
[...]
       <r>   3.2995  1.0000</r>
       <r>   3.3677  1.0000</r>
       <r>   3.4030  1.0000</r>
       <r>   3.4043  1.0000</r>
       <r>   3.4493  1.0000</r>
       <r>   3.4701  1.0000</r>
       <r>   3.5340  1.0000</r>
       <r>   3.5454  1.0000</r>
       <r>   3.5492  1.0000</r>
       <r>   3.5501  1.0000</r>
       <r>   3.5736  1.0000</r>
       <r>   3.5760  1.0000</r>
       <r>   3.7082  1.0000</r>
       <r>   3.7101  1.0000</r>
       <r>   3.7753  1.0000</r>
       <r>   3.8423  1.0000</r>
       <r>   3.8840  1.0000</r>
       <r>   4.0508  1.0000</r>
       <r>   4.0608  1.0000</r>
       <r>   4.1310  1.0000</r>
       <r>   4.1325  1.0000</r>
       <r>   4.1334  1.0000</r>
       <r>   4.1369  1.0000</r>
       <r>   4.1415  1.0000</r>
       <r>   4.2087  1.0000</r>
       <r>   4.2504  1.0000</r>
       <r>   4.2596  1.0000</r>
       <r>   4.4066  1.0000</r>
       <r>   4.6202  1.0000</r>
       <r>   4.6245  1.0000</r>
       <r>   4.6280  1.0000</r>
       <r>   4.6406  1.0000</r>
       <r>   4.7204  1.0000</r>
       <r>   4.7607  1.0000</r>
       <r>   4.8226  1.0000</r>
       <r>   4.8256  1.0000</r>
       <r>   4.8303  1.0000</r>
       <r>   4.8430  1.0000</r>
       <r>   4.8669  1.0000</r>
       <r>   4.8842  1.0000</r>
       <r>   4.9308  1.0000</r>
       <r>   4.9433  1.0000</r>
       <r>   4.9516  1.0000</r>
       <r>   5.0147  1.0000</r>
       <r>   5.0159  1.0000</r>
       <r>   5.0733  1.0000</r>
       <r>   5.0744  1.0000</r>
       <r>   5.0752  1.0000</r>
       <r>   5.0947  1.0000</r>
       <r>   5.2166  1.0000</r>
       <r>   5.2290  1.0000</r>
       <r>   5.2466  1.0000</r>
       <r>   5.2747  1.0000</r>
       <r>   5.2761  1.0000</r>
       <r>   5.2862  1.0000</r>
       <r>   5.2888  1.0000</r>
       <r>   5.3682  1.0000</r>
       <r>   5.3709  1.0000</r>
       <r>   5.4980  1.0000</r>
       <r>   5.6050  1.0000</r>
       <r>   5.9203  1.0000</r>
       <r>   5.9364  0.9998</r>
       <r>   5.9818  0.0017</r>
       <r>   5.9977  0.0000</r>
       <r>   6.0935  0.0000</r>
       <r>   6.0994  0.0000</r>
       <r>   6.0998  0.0000</r>
       <r>   6.1031  0.0000</r>
       <r>   6.1725  0.0000</r>
       <r>   6.1831  0.0000</r>
       <r>   6.1844  0.0000</r>
       <r>   6.1920  0.0000</r>
       <r>   6.2186  0.0000</r>
       <r>   6.2597  0.0000</r>
       <r>   6.2738  0.0000</r>
       <r>   6.2772  0.0000</r>
       <r>   6.3061  0.0000</r>
       <r>   6.3782  0.0000</r>
       <r>   6.3847  0.0000</r>
       <r>   6.4519  0.0000</r>
       <r>   6.4666  0.0000</r>
       <r>   6.4904  0.0000</r>
       <r>   6.5083  0.0000</r>
       <r>   6.5217  0.0000</r>
       <r>   6.5930  0.0000</r>
       <r>   6.6310  0.0000</r>
       <r>   6.6356  0.0000</r>
       <r>   6.6419  0.0000</r>
       <r>   6.6462  0.0000</r>
       <r>   6.6904  0.0000</r>
       <r>   6.7009  0.0000</r>
       <r>   6.7130  0.0000</r>
       <r>   6.7547  0.0000</r>
       <r>   6.8148  0.0000</r>
       <r>   6.8192  0.0000</r>
       <r>   6.8328  0.0000</r>
       <r>   6.8522  0.0000</r>
       <r>   6.8986  0.0000</r>
       <r>   6.9170  0.0000</r>
       <r>   6.9320  0.0000</r>
      </set>
      <set comment="kpoint 122">
       <r> -27.4083  1.0000</r>
       <r> -27.3784  1.0000</r>
       <r> -27.3658  1.0000</r>
       <r> -27.3614  1.0000</r>
       <r> -27.3535  1.0000</r>
       <r> -27.3483  1.0000</r>
       <r> -27.3406  1.0000</r>
       <r> -27.3368  1.0000</r>
       <r> -27.3333  1.0000</r>
       <r> -27.3255  1.0000</r>
       <r> -27.3221  1.0000</r>
       <r> -27.3171  1.0000</r>
       <r> -27.3158  1.0000</r>
       <r> -27.3135  1.0000</r>
       <r> -27.3085  1.0000</r>
       <r> -27.3071  1.0000</r>
       <r> -27.3056  1.0000</r>
       <r> -27.2857  1.0000</r>
       <r> -27.2730  1.0000</r>
       <r> -27.2711  1.0000</r>
       <r> -27.2642  1.0000</r>
       <r> -27.2576  1.0000</r>
       <r> -27.2308  1.0000</r>
       <r> -27.2272  1.0000</r>
       <r> -27.2235  1.0000</r>
       <r> -27.2181  1.0000</r>
       <r> -27.2115  1.0000</r>
       <r> -27.1874  1.0000</r>
       <r> -27.1872  1.0000</r>
       <r> -27.1478  1.0000</r>
       <r> -27.1192  1.0000</r>
       <r> -27.0956  1.0000</r>
       <r> -27.0955  1.0000</r>
       <r> -27.0920  1.0000</r>
       <r> -27.0905  1.0000</r>
       <r> -27.0858  1.0000</r>
       <r> -27.0829  1.0000</r>
       <r> -27.0747  1.0000</r>
       <r> -27.0556  1.0000</r>
       <r> -27.0550  1.0000</r>
       <r> -27.0475  1.0000</r>
       <r> -27.0364  1.0000</r>
       <r> -27.0308  1.0000</r>
       <r> -27.0265  1.0000</r>
       <r> -27.0219  1.0000</r>
       <r> -27.0099  1.0000</r>
       <r> -27.0054  1.0000</r>
       <r> -27.0041  1.0000</r>
       <r> -26.9921  1.0000</r>
       <r> -26.9911  1.0000</r>
       <r> -26.9876  1.0000</r>
       <r> -26.9743  1.0000</r>
       <r> -26.9727  1.0000</r>
       <r> -26.9714  1.0000</r>
       <r> -26.9706  1.0000</r>
       <r> -26.9704  1.0000</r>
       <r> -26.9667  1.0000</r>
       <r> -26.9644  1.0000</r>
       <r> -26.9608  1.0000</r>
       <r> -26.9604  1.0000</r>
       <r> -26.9535  1.0000</r>
       <r> -26.9520  1.0000</r>
       <r> -26.9439  1.0000</r>
       <r> -26.9381  1.0000</r>
       <r> -26.9323  1.0000</r>
       <r> -26.9245  1.0000</r>
       <r> -26.9173  1.0000</r>
       <r> -26.9106  1.0000</r>
       <r> -26.9081  1.0000</r>
       <r> -26.9075  1.0000</r>
       <r> -26.9019  1.0000</r>
       <r> -26.9013  1.0000</r>
       <r> -26.8983  1.0000</r>
       <r> -26.8938  1.0000</r>
       <r> -26.8879  1.0000</r>
       <r> -26.8852  1.0000</r>
       <r> -26.8850  1.0000</r>
       <r> -26.8836  1.0000</r>
       <r> -26.8801  1.0000</r>
       <r> -26.8784  1.0000</r>
       <r> -26.8731  1.0000</r>
       <r> -26.8729  1.0000</r>
       <r> -26.8610  1.0000</r>
       <r> -26.8603  1.0000</r>
       <r> -26.8592  1.0000</r>
       <r> -26.8520  1.0000</r>
       <r> -26.8466  1.0000</r>
       <r> -26.8390  1.0000</r>
       <r> -26.8372  1.0000</r>
       <r> -26.8370  1.0000</r>
       <r> -26.8358  1.0000</r>
       <r> -26.8324  1.0000</r>
       <r> -26.8284  1.0000</r>
       <r> -26.8278  1.0000</r>
       <r> -26.8271  1.0000</r>
       <r> -26.8237  1.0000</r>
       <r> -26.8195  1.0000</r>
       <r> -26.8168  1.0000</r>
       <r> -26.8148  1.0000</r>
       <r> -26.8089  1.0000</r>
       <r> -26.8020  1.0000</r>
       <r> -26.7879  1.0000</r>
       <r> -26.7852  1.0000</r>
       <r> -26.7835  1.0000</r>
       <r> -26.7723  1.0000</r>
       <r> -26.7697  1.0000</r>
       <r> -26.7632  1.0000</r>
       <r> -26.7499  1.0000</r>
       <r>   0.5485  1.0000</r>
       <r>   0.9378  1.0000</r>
       <r>   1.3179  1.0000</r>
       <r>   1.6593  1.0000</r>
       <r>   1.6738  1.0000</r>
       <r>   1.9876  1.0000</r>
       <r>   2.5976  1.0000</r>
       <r>   2.8119  1.0000</r>
       <r>   3.0557  1.0000</r>
       <r>   3.1398  1.0000</r>
       <r>   3.1875  1.0000</r>
       <r>   3.2652  1.0000</r>
       <r>   3.3043  1.0000</r>
       <r>   3.3271  1.0000</r>
       <r>   3.3300  1.0000</r>
       <r>   3.4477  1.0000</r>
       <r>   3.6807  1.0000</r>
       <r>   3.7870  1.0000</r>
       <r>   3.7898  1.0000</r>
       <r>   3.8108  1.0000</r>
       <r>   3.8536  1.0000</r>
       <r>   3.8768  1.0000</r>
       <r>   3.8817  1.0000</r>
       <r>   3.8992  1.0000</r>
       <r>   3.9058  1.0000</r>
       <r>   3.9866  1.0000</r>
       <r>   4.0147  1.0000</r>
       <r>   4.0664  1.0000</r>
       <r>   4.0938  1.0000</r>
       <r>   4.2009  1.0000</r>
       <r>   4.2088  1.0000</r>
       <r>   4.2513  1.0000</r>
       <r>   4.2535  1.0000</r>
       <r>   4.2581  1.0000</r>
       <r>   4.3056  1.0000</r>
       <r>   4.3614  1.0000</r>
       <r>   4.5800  1.0000</r>
       <r>   4.5817  1.0000</r>
       <r>   4.6333  1.0000</r>
       <r>   4.6626  1.0000</r>
       <r>   4.6742  1.0000</r>
       <r>   4.6816  1.0000</r>
       <r>   4.7839  1.0000</r>
       <r>   4.8003  1.0000</r>
       <r>   4.8141  1.0000</r>
       <r>   4.8524  1.0000</r>
       <r>   4.8613  1.0000</r>
       <r>   4.8632  1.0000</r>
       <r>   4.8665  1.0000</r>
       <r>   4.9010  1.0000</r>
       <r>   4.9279  1.0000</r>
       <r>   4.9798  1.0000</r>
       <r>   5.0342  1.0000</r>
       <r>   5.0445  1.0000</r>
       <r>   5.0546  1.0000</r>
       <r>   5.1050  1.0000</r>
       <r>   5.1551  1.0000</r>
       <r>   5.1653  1.0000</r>
       <r>   5.1896  1.0000</r>
       <r>   5.1943  1.0000</r>
       <r>   5.2276  1.0000</r>
       <r>   5.2649  1.0000</r>
       <r>   5.3325  1.0000</r>
       <r>   5.3550  1.0000</r>
       <r>   5.5042  1.0000</r>
       <r>   5.5411  1.0000</r>
       <r>   5.6073  1.0000</r>
       <r>   5.6981  1.0000</r>
       <r>   5.7049  1.0000</r>
       <r>   5.7796  1.0000</r>
       <r>   5.9290  1.0000</r>
       <r>   5.9795  0.0047</r>
       <r>   6.0756  0.0000</r>
       <r>   6.1236  0.0000</r>
       <r>   6.1384  0.0000</r>
       <r>   6.1515  0.0000</r>
       <r>   6.1814  0.0000</r>
       <r>   6.1832  0.0000</r>
       <r>   6.1848  0.0000</r>
       <r>   6.2530  0.0000</r>
       <r>   6.2548  0.0000</r>
       <r>   6.2662  0.0000</r>
       <r>   6.2828  0.0000</r>
       <r>   6.3085  0.0000</r>
       <r>   6.3347  0.0000</r>
       <r>   6.3767  0.0000</r>
       <r>   6.4174  0.0000</r>
       <r>   6.4397  0.0000</r>
       <r>   6.4412  0.0000</r>
       <r>   6.4797  0.0000</r>
       <r>   6.5152  0.0000</r>
       <r>   6.5209  0.0000</r>
       <r>   6.5241  0.0000</r>
       <r>   6.5779  0.0000</r>
       <r>   6.5887  0.0000</r>
       <r>   6.6630  0.0000</r>
       <r>   6.7077  0.0000</r>
       <r>   6.7345  0.0000</r>
       <r>   6.7491  0.0000</r>
       <r>   6.7776  0.0000</r>
       <r>   6.7941  0.0000</r>
       <r>   6.8164  0.0000</r>
       <r>   6.8226  0.0000</r>
       <r>   6.8437  0.0000</r>
       <r>   6.8450  0.0000</r>
       <r>   6.8739  0.0000</r>
       <r>   6.9218  0.0000</r>
       <r>   6.9406  0.0000</r>
      </set>
      <set comment="kpoint 123">
       <r> -27.4225  1.0000</r>
       <r> -27.3622  1.0000</r>
       <r> -27.3621  1.0000</r>
       <r> -27.3485  1.0000</r>
       <r> -27.3440  1.0000</r>
       <r> -27.3439  1.0000</r>
       <r> -27.3397  1.0000</r>
       <r> -27.3396  1.0000</r>
       <r> -27.3265  1.0000</r>
       <r> -27.3263  1.0000</r>
       <r> -27.3194  1.0000</r>
       <r> -27.3193  1.0000</r>
       <r> -27.3191  1.0000</r>
       <r> -27.3189  1.0000</r>
       <r> -27.3077  1.0000</r>
       <r> -27.2895  1.0000</r>
       <r> -27.2788  1.0000</r>
       <r> -27.2616  1.0000</r>
       <r> -27.2615  1.0000</r>
       <r> -27.2613  1.0000</r>
       <r> -27.2559  1.0000</r>
       <r> -27.2497  1.0000</r>
       <r> -27.2301  1.0000</r>
       <r> -27.2089  1.0000</r>
       <r> -27.2088  1.0000</r>
       <r> -27.2023  1.0000</r>
       <r> -27.2009  1.0000</r>
       <r> -27.2007  1.0000</r>
       <r> -27.1586  1.0000</r>
       <r> -27.1582  1.0000</r>
       <r> -27.1477  1.0000</r>
       <r> -27.1293  1.0000</r>
       <r> -27.1245  1.0000</r>
       <r> -27.1214  1.0000</r>
       <r> -27.1146  1.0000</r>
       <r> -27.1145  1.0000</r>
       <r> -27.0951  1.0000</r>
       <r> -27.0949  1.0000</r>
       <r> -27.0741  1.0000</r>
       <r> -27.0736  1.0000</r>
       <r> -27.0692  1.0000</r>
       <r> -27.0689  1.0000</r>
       <r> -27.0298  1.0000</r>
       <r> -27.0296  1.0000</r>
       <r> -27.0245  1.0000</r>
       <r> -27.0241  1.0000</r>
       <r> -27.0212  1.0000</r>
       <r> -27.0209  1.0000</r>
       <r> -27.0074  1.0000</r>
       <r> -27.0045  1.0000</r>
       <r> -26.9990  1.0000</r>
       <r> -26.9913  1.0000</r>
       <r> -26.9912  1.0000</r>
       <r> -26.9789  1.0000</r>
       <r> -26.9782  1.0000</r>
       <r> -26.9573  1.0000</r>
       <r> -26.9573  1.0000</r>
       <r> -26.9538  1.0000</r>
       <r> -26.9537  1.0000</r>
       <r> -26.9476  1.0000</r>
       <r> -26.9430  1.0000</r>
       <r> -26.9428  1.0000</r>
       <r> -26.9399  1.0000</r>
       <r> -26.9329  1.0000</r>
       <r> -26.9329  1.0000</r>
       <r> -26.9234  1.0000</r>
       <r> -26.9177  1.0000</r>
       <r> -26.9100  1.0000</r>
       <r> -26.9056  1.0000</r>
       <r> -26.9054  1.0000</r>
       <r> -26.9035  1.0000</r>
       <r> -26.8939  1.0000</r>
       <r> -26.8936  1.0000</r>
       <r> -26.8920  1.0000</r>
       <r> -26.8918  1.0000</r>
       <r> -26.8864  1.0000</r>
       <r> -26.8862  1.0000</r>
       <r> -26.8723  1.0000</r>
       <r> -26.8719  1.0000</r>
       <r> -26.8654  1.0000</r>
       <r> -26.8653  1.0000</r>
       <r> -26.8618  1.0000</r>
       <r> -26.8616  1.0000</r>
       <r> -26.8589  1.0000</r>
       <r> -26.8585  1.0000</r>
       <r> -26.8445  1.0000</r>
       <r> -26.8361  1.0000</r>
       <r> -26.8359  1.0000</r>
       <r> -26.8339  1.0000</r>
       <r> -26.8284  1.0000</r>
       <r> -26.8281  1.0000</r>
       <r> -26.8269  1.0000</r>
       <r> -26.8269  1.0000</r>
       <r> -26.8265  1.0000</r>
       <r> -26.8263  1.0000</r>
       <r> -26.8222  1.0000</r>
       <r> -26.8161  1.0000</r>
       <r> -26.8160  1.0000</r>
       <r> -26.8097  1.0000</r>
       <r> -26.8096  1.0000</r>
       <r> -26.7972  1.0000</r>
       <r> -26.7970  1.0000</r>
       <r> -26.7808  1.0000</r>
       <r> -26.7807  1.0000</r>
       <r> -26.7691  1.0000</r>
       <r> -26.7574  1.0000</r>
       <r> -26.7554  1.0000</r>
       <r> -26.7428  1.0000</r>
       <r>   0.3122  1.0000</r>
       <r>   0.7125  1.0000</r>
       <r>   1.7995  1.0000</r>
       <r>   1.8000  1.0000</r>
       <r>   2.0962  1.0000</r>
       <r>   2.0966  1.0000</r>
       <r>   2.6610  1.0000</r>
       <r>   2.6612  1.0000</r>
       <r>   2.8449  1.0000</r>
       <r>   2.8450  1.0000</r>
       <r>   2.9430  1.0000</r>
       <r>   3.1010  1.0000</r>
       <r>   3.1012  1.0000</r>
       <r>   3.1407  1.0000</r>
       <r>   3.1408  1.0000</r>
       <r>   3.2533  1.0000</r>
       <r>   3.8312  1.0000</r>
       <r>   3.8320  1.0000</r>
       <r>   3.8813  1.0000</r>
       <r>   3.8821  1.0000</r>
       <r>   3.9692  1.0000</r>
       <r>   3.9700  1.0000</r>
       <r>   3.9970  1.0000</r>
       <r>   3.9978  1.0000</r>
       <r>   4.0380  1.0000</r>
       <r>   4.0437  1.0000</r>
       <r>   4.1864  1.0000</r>
       <r>   4.1869  1.0000</r>
       <r>   4.2112  1.0000</r>
       <r>   4.2326  1.0000</r>
       <r>   4.2334  1.0000</r>
       <r>   4.2421  1.0000</r>
       <r>   4.2570  1.0000</r>
       <r>   4.2724  1.0000</r>
       <r>   4.4654  1.0000</r>
       <r>   4.4922  1.0000</r>
       <r>   4.5492  1.0000</r>
       <r>   4.5496  1.0000</r>
       <r>   4.5789  1.0000</r>
       <r>   4.5793  1.0000</r>
       <r>   4.6797  1.0000</r>
       <r>   4.6835  1.0000</r>
       <r>   4.7537  1.0000</r>
       <r>   4.7541  1.0000</r>
       <r>   4.7825  1.0000</r>
       <r>   4.7849  1.0000</r>
       <r>   4.7855  1.0000</r>
       <r>   4.7984  1.0000</r>
       <r>   4.7990  1.0000</r>
       <r>   4.8170  1.0000</r>
       <r>   4.8798  1.0000</r>
       <r>   4.8878  1.0000</r>
       <r>   4.8884  1.0000</r>
       <r>   4.8947  1.0000</r>
       <r>   4.9864  1.0000</r>
       <r>   5.1256  1.0000</r>
       <r>   5.1851  1.0000</r>
       <r>   5.1859  1.0000</r>
       <r>   5.2894  1.0000</r>
       <r>   5.2907  1.0000</r>
       <r>   5.3114  1.0000</r>
       <r>   5.3129  1.0000</r>
       <r>   5.4306  1.0000</r>
       <r>   5.4321  1.0000</r>
       <r>   5.5137  1.0000</r>
       <r>   5.5146  1.0000</r>
       <r>   5.6053  1.0000</r>
       <r>   5.6061  1.0000</r>
       <r>   5.7938  1.0000</r>
       <r>   5.8720  1.0000</r>
       <r>   5.8927  1.0000</r>
       <r>   6.0153  0.0000</r>
       <r>   6.0237  0.0000</r>
       <r>   6.0560  0.0000</r>
       <r>   6.1082  0.0000</r>
       <r>   6.1232  0.0000</r>
       <r>   6.1487  0.0000</r>
       <r>   6.2416  0.0000</r>
       <r>   6.2431  0.0000</r>
       <r>   6.2546  0.0000</r>
       <r>   6.2552  0.0000</r>
       <r>   6.2762  0.0000</r>
       <r>   6.3414  0.0000</r>
       <r>   6.3419  0.0000</r>
       <r>   6.3473  0.0000</r>
       <r>   6.3481  0.0000</r>
       <r>   6.4122  0.0000</r>
       <r>   6.4134  0.0000</r>
       <r>   6.4837  0.0000</r>
       <r>   6.5425  0.0000</r>
       <r>   6.5430  0.0000</r>
       <r>   6.5494  0.0000</r>
       <r>   6.5498  0.0000</r>
       <r>   6.6417  0.0000</r>
       <r>   6.7038  0.0000</r>
       <r>   6.7046  0.0000</r>
       <r>   6.7064  0.0000</r>
       <r>   6.7344  0.0000</r>
       <r>   6.7700  0.0000</r>
       <r>   6.7708  0.0000</r>
       <r>   6.7915  0.0000</r>
       <r>   6.7923  0.0000</r>
       <r>   6.8123  0.0000</r>
       <r>   6.8133  0.0000</r>
       <r>   6.8928  0.0000</r>
       <r>   6.8989  0.0000</r>
       <r>   6.9313  0.0000</r>
       <r>   6.9428  0.0000</r>
      </set>
     </set>
    </set>
   </array>
  </eigenvalues>
 </calculation>
 <structure name="finalpos" >
  <crystal>
   <varray name="basis" >
    <v>       8.82066710      0.02476544      0.00000000</v>
    <v>      -4.38888587      7.65130461      0.00000000</v>
    <v>       0.00000000      0.00000000      9.20747447</v>
   </varray>
   <i name="volume">    622.40965371</i>
   <varray name="rec_basis" >
    <v>       0.11318782      0.06492598      0.00000000</v>
    <v>      -0.00036636      0.13048652      0.00000000</v>
    <v>       0.00000000      0.00000000      0.10860741</v>
   </varray>
  </crystal>
  <varray name="positions" >
   <v>       0.11152766      0.22258994      0.12578427</v>
   <v>       0.44407673      0.22258994      0.12500000</v>
   <v>       0.77741006      0.22258994      0.12500000</v>
   <v>       0.11074339      0.55592327      0.12500000</v>
   <v>       0.44407673      0.55592327      0.12500000</v>
   <v>       0.77741006      0.55592327      0.12500000</v>
   <v>       0.11074339      0.88925661      0.12500000</v>
   <v>       0.44407673      0.88925661      0.12500000</v>
   <v>       0.77741006      0.88925661      0.12500000</v>
   <v>       0.11074339      0.22258994      0.62500000</v>
   <v>       0.44407673      0.22258994      0.62500000</v>
   <v>       0.77741006      0.22258994      0.62500000</v>
   <v>       0.11074339      0.55592327      0.62500000</v>
   <v>       0.44407673      0.55592327      0.62500000</v>
   <v>       0.77741006      0.55592327      0.62500000</v>
   <v>       0.11074339      0.88925661      0.62500000</v>
   <v>       0.44407673      0.88925661      0.62500000</v>
   <v>       0.77741006      0.88925661      0.62500000</v>
   <v>       0.22258994      0.11074339      0.37500000</v>
   <v>       0.55592327      0.11074339      0.37500000</v>
   <v>       0.88925661      0.11074339      0.37500000</v>
   <v>       0.22258994      0.44407673      0.37500000</v>
   <v>       0.55592327      0.44407673      0.37500000</v>
   <v>       0.88925661      0.44407673      0.37500000</v>
   <v>       0.22258994      0.77741006      0.37500000</v>
   <v>       0.55592327      0.77741006      0.37500000</v>
   <v>       0.88925661      0.77741006      0.37500000</v>
   <v>       0.22258994      0.11074339      0.87500000</v>
   <v>       0.55592327      0.11074339      0.87500000</v>
   <v>       0.88925661      0.11074339      0.87500000</v>
   <v>       0.22258994      0.44407673      0.87500000</v>
   <v>       0.55592327      0.44407673      0.87500000</v>
   <v>       0.88925661      0.44407673      0.87500000</v>
   <v>       0.22258994      0.77741006      0.87500000</v>
   <v>       0.55592327      0.77741006      0.87500000</v>
   <v>       0.88925661      0.77741006      0.87500000</v>
  </varray>
 </structure>
</modeling>
