 running on    8 nodes
 distr:  one band on    1 nodes,    8 groups
 vasp.4.6.28 25Jul05 complex 
 POSCAR found :  1 types and   32 ions

 ----------------------------------------------------------------------------- 
|                                                                             |
|  ADVICE TO THIS USER RUNNING 'VASP/VAMP'   (HEAR YOUR MASTER'S VOICE ...):  |
|                                                                             |
|      You have a (more or less) 'large supercell' and for larger cells       |
|      it might be more efficient to use real space projection operators      |
|      So try LREAL= Auto  in the INCAR   file.                               |
|      Mind: If you want to do an extremely accurate calculations keep the    |
|      reciprocal projection scheme          (i.e. LREAL=.FALSE.)             |
|                                                                             |
 ----------------------------------------------------------------------------- 

 LDA part: xc-table for Pade appr. of Perdew
 POSCAR, INCAR and KPOINTS ok, starting setup
 FFT: planning ...           1
 reading WAVECAR
 WARNING: random wavefunctions but no delay for mixing, default for NELMDL
 entering main loop
       N       E                     dE             d eps       ncg     rms          rms(c)
DAV:   1     0.388343925179E+04    0.38834E+04   -0.18770E+05 84672   0.317E+03
DAV:   2     0.440948197885E+03   -0.34425E+04   -0.33090E+04 84672   0.684E+02
DAV:   3    -0.108348831018E+03   -0.54930E+03   -0.50214E+03 84672   0.257E+02
DAV:   4    -0.144950000016E+03   -0.36601E+02   -0.35339E+02 89048   0.766E+01
DAV:   5    -0.145369362704E+03   -0.41936E+00   -0.41804E+00 90216   0.841E+00    0.389E+01
DAV:   6    -0.129987029074E+03    0.15382E+02   -0.27743E+02 91336   0.946E+01    0.195E+01
DAV:   7    -0.118712253096E+03    0.11275E+02   -0.51120E+01 94936   0.409E+01    0.253E+00
DAV:   8    -0.118539896091E+03    0.17236E+00   -0.83230E-01 88136   0.336E+00    0.231E+00
DAV:   9    -0.118439761725E+03    0.10013E+00   -0.25771E-01 89688   0.312E+00    0.257E-01
DAV:  10    -0.118441149564E+03   -0.13878E-02   -0.26852E-02 96760   0.126E+00    0.189E-01
DAV:  11    -0.118440667970E+03    0.48159E-03   -0.24186E-03 88224   0.333E-01    0.383E-02
DAV:  12    -0.118440652315E+03    0.15655E-04   -0.31908E-04 91576   0.195E-01    0.191E-02
DAV:  13    -0.118440667606E+03   -0.15291E-04   -0.90093E-05 88776   0.829E-02    0.926E-03
DAV:  14    -0.118440667336E+03    0.26986E-06   -0.12587E-05 90256   0.305E-02    0.465E-03
DAV:  15    -0.118440667228E+03    0.10823E-06   -0.32008E-06 91728   0.191E-02    0.421E-03
DAV:  16    -0.118440666288E+03    0.94001E-06   -0.36634E-07 90296   0.536E-03    0.239E-03
DAV:  17    -0.118440666971E+03   -0.68344E-06   -0.38175E-07 96720   0.645E-03    0.108E-03
DAV:  18    -0.118440667765E+03   -0.79374E-06   -0.21262E-07 89872   0.492E-03    0.267E-04
DAV:  19    -0.118440667536E+03    0.22941E-06   -0.20728E-08 48256   0.118E-03    0.315E-04
DAV:  20    -0.118440667468E+03    0.67434E-07   -0.78460E-09 46160   0.902E-04    0.230E-04
DAV:  21    -0.118440667474E+03   -0.60318E-08   -0.55884E-09 46072   0.477E-04
   1 F= -.11844067E+03 E0= -.11844008E+03  d E =-.117691E-02
