  32  32   0   0
  0.1275737E+02  0.7418288E-09  0.7418288E-09  0.7418288E-09  0.5000000E-15
  1.000000000000000E-004
  CAR 
 unknown system                          
     13.61109834     -6.53668612  301      3.15347673      1.00000000
     -6.537  0.0000E+00  0.0000E+00
     -6.470  0.0000E+00  0.0000E+00
     -6.402  0.0000E+00  0.0000E+00
     -6.335  0.0000E+00  0.0000E+00
     -6.268  0.0000E+00  0.0000E+00
     -6.201  0.0000E+00  0.0000E+00
     -6.134  0.0000E+00  0.0000E+00
     -6.067  0.0000E+00  0.0000E+00
     -5.999  0.0000E+00  0.0000E+00
     -5.932  0.0000E+00  0.0000E+00
     -5.865  0.0000E+00  0.0000E+00
     -5.798  0.0000E+00  0.0000E+00
     -5.731  0.0000E+00  0.0000E+00
     -5.664  0.1295E-10  0.8699E-12
     -5.596  0.9603E-01  0.6449E-02
     -5.529  0.5172E+00  0.4118E-01
     -5.462  0.8772E+00  0.1001E+00
     -5.395  0.1391E+01  0.1935E+00
     -5.328  0.1428E+01  0.2894E+00
     -5.261  0.1335E+01  0.3802E+00
     -5.194  0.1866E+01  0.5056E+00
     -5.126  0.1079E+01  0.5781E+00
     -5.059  0.2132E+01  0.7213E+00
     -4.992  0.2073E+01  0.8605E+00
     -4.925  0.2486E+01  0.1028E+01
     -4.858  0.2280E+01  0.1181E+01
     -4.791  0.2752E+01  0.1367E+01
     -4.723  0.2439E+01  0.1530E+01
     -4.656  0.1546E+01  0.1635E+01
     -4.589  0.3217E+01  0.1851E+01
     -4.522  0.3276E+01  0.2072E+01
     -4.455  0.2504E+01  0.2240E+01
     -4.388  0.2895E+01  0.2435E+01
     -4.320  0.3722E+01  0.2685E+01
     -4.253  0.3398E+01  0.2913E+01
     -4.186  0.3326E+01  0.3137E+01
     -4.119  0.3761E+01  0.3389E+01
     -4.052  0.2603E+01  0.3564E+01
     -3.985  0.3704E+01  0.3814E+01
     -3.917  0.4233E+01  0.4098E+01
     -3.850  0.3906E+01  0.4360E+01
     -3.783  0.2880E+01  0.4554E+01
     -3.716  0.4592E+01  0.4862E+01
     -3.649  0.4413E+01  0.5159E+01
     -3.582  0.4604E+01  0.5468E+01
     -3.515  0.3830E+01  0.5726E+01
     -3.447  0.5010E+01  0.6062E+01
     -3.380  0.4246E+01  0.6348E+01
     -3.313  0.5029E+01  0.6686E+01
     -3.246  0.4849E+01  0.7012E+01
     -3.179  0.6209E+01  0.7429E+01
     -3.112  0.4479E+01  0.7730E+01
     -3.044  0.5554E+01  0.8103E+01
     -2.977  0.3381E+01  0.8330E+01
     -2.910  0.7003E+01  0.8801E+01
     -2.843  0.7336E+01  0.9294E+01
     -2.776  0.4414E+01  0.9591E+01
     -2.709  0.7107E+01  0.1007E+02
     -2.641  0.5857E+01  0.1046E+02
     -2.574  0.6566E+01  0.1090E+02
     -2.507  0.7902E+01  0.1143E+02
     -2.440  0.6292E+01  0.1186E+02
     -2.373  0.7742E+01  0.1238E+02
     -2.306  0.8065E+01  0.1292E+02
     -2.238  0.6909E+01  0.1339E+02
     -2.171  0.8722E+01  0.1398E+02
     -2.104  0.8004E+01  0.1451E+02
     -2.037  0.1033E+02  0.1521E+02
     -1.970  0.9064E+01  0.1582E+02
     -1.903  0.1026E+02  0.1651E+02
     -1.836  0.1173E+02  0.1729E+02
     -1.768  0.1209E+02  0.1811E+02
     -1.701  0.1355E+02  0.1902E+02
     -1.634  0.1188E+02  0.1982E+02
     -1.567  0.2229E+02  0.2132E+02
     -1.500  0.1949E+02  0.2263E+02
     -1.433  0.2224E+02  0.2413E+02
     -1.365  0.2843E+02  0.2604E+02
     -1.298  0.2979E+02  0.2804E+02
     -1.231  0.4017E+02  0.3074E+02
     -1.164  0.3977E+02  0.3342E+02
     -1.097  0.4336E+02  0.3633E+02
     -1.030  0.4003E+02  0.3902E+02
     -0.962  0.4866E+02  0.4229E+02
     -0.895  0.4592E+02  0.4538E+02
     -0.828  0.5265E+02  0.4893E+02
     -0.761  0.7091E+02  0.5369E+02
     -0.694  0.7447E+02  0.5870E+02
     -0.627  0.8050E+02  0.6411E+02
     -0.560  0.8812E+02  0.7003E+02
     -0.492  0.7956E+02  0.7538E+02
     -0.425  0.7325E+02  0.8031E+02
     -0.358  0.7441E+02  0.8531E+02
     -0.291  0.7774E+02  0.9054E+02
     -0.224  0.7644E+02  0.9568E+02
     -0.157  0.7111E+02  0.1005E+03
     -0.089  0.8359E+02  0.1061E+03
     -0.022  0.9484E+02  0.1125E+03
      0.045  0.1079E+03  0.1197E+03
      0.112  0.1066E+03  0.1269E+03
      0.179  0.1175E+03  0.1348E+03
      0.246  0.1177E+03  0.1427E+03
      0.314  0.1423E+03  0.1523E+03
      0.381  0.1437E+03  0.1619E+03
      0.448  0.1486E+03  0.1719E+03
      0.515  0.1837E+03  0.1843E+03
      0.582  0.1244E+03  0.1927E+03
      0.649  0.1081E+03  0.1999E+03
      0.717  0.9444E+02  0.2063E+03
      0.784  0.9183E+02  0.2125E+03
      0.851  0.9541E+02  0.2189E+03
      0.918  0.1227E+03  0.2271E+03
      0.985  0.1310E+03  0.2359E+03
      1.052  0.1412E+03  0.2454E+03
      1.119  0.1295E+03  0.2541E+03
      1.187  0.1204E+03  0.2622E+03
      1.254  0.1148E+03  0.2699E+03
      1.321  0.1139E+03  0.2776E+03
      1.388  0.1258E+03  0.2861E+03
      1.455  0.1378E+03  0.2953E+03
      1.522  0.1827E+03  0.3076E+03
      1.590  0.2335E+03  0.3233E+03
      1.657  0.1188E+03  0.3313E+03
      1.724  0.5686E+02  0.3351E+03
      1.791  0.1095E+02  0.3359E+03
      1.858  0.1944E+02  0.3372E+03
      1.925  0.9673E+01  0.3378E+03
      1.993  0.1739E+02  0.3390E+03
      2.060  0.1056E+02  0.3397E+03
      2.127  0.1195E+02  0.3405E+03
      2.194  0.1522E+02  0.3415E+03
      2.261  0.8045E+01  0.3421E+03
      2.328  0.1496E+02  0.3431E+03
      2.395  0.1088E+02  0.3438E+03
      2.463  0.9326E+01  0.3445E+03
      2.530  0.1176E+02  0.3452E+03
      2.597  0.1274E+02  0.3461E+03
      2.664  0.1052E+02  0.3468E+03
      2.731  0.1066E+02  0.3475E+03
      2.798  0.9814E+01  0.3482E+03
      2.866  0.1342E+02  0.3491E+03
      2.933  0.9377E+01  0.3497E+03
      3.000  0.9439E+01  0.3504E+03
      3.067  0.9239E+01  0.3510E+03
      3.134  0.1053E+02  0.3517E+03
      3.201  0.1307E+02  0.3526E+03
      3.269  0.7281E+01  0.3531E+03
      3.336  0.9369E+01  0.3537E+03
      3.403  0.9834E+01  0.3543E+03
      3.470  0.1210E+02  0.3552E+03
      3.537  0.9790E+01  0.3558E+03
      3.604  0.9524E+01  0.3565E+03
      3.672  0.7569E+01  0.3570E+03
      3.739  0.6761E+01  0.3574E+03
      3.806  0.8246E+01  0.3580E+03
      3.873  0.1390E+02  0.3589E+03
      3.940  0.9246E+01  0.3595E+03
      4.007  0.8032E+01  0.3601E+03
      4.074  0.7776E+01  0.3606E+03
      4.142  0.8261E+01  0.3612E+03
      4.209  0.6458E+01  0.3616E+03
      4.276  0.1309E+02  0.3625E+03
      4.343  0.8294E+01  0.3630E+03
      4.410  0.1058E+02  0.3637E+03
      4.477  0.6214E+01  0.3642E+03
      4.545  0.7838E+01  0.3647E+03
      4.612  0.5478E+01  0.3651E+03
      4.679  0.9861E+01  0.3657E+03
      4.746  0.9464E+01  0.3664E+03
      4.813  0.1133E+02  0.3671E+03
      4.880  0.6645E+01  0.3676E+03
      4.948  0.9936E+01  0.3682E+03
      5.015  0.5148E+01  0.3686E+03
      5.082  0.7056E+01  0.3691E+03
      5.149  0.7443E+01  0.3696E+03
      5.216  0.1143E+02  0.3703E+03
      5.283  0.6654E+01  0.3708E+03
      5.351  0.9587E+01  0.3714E+03
      5.418  0.4508E+01  0.3717E+03
      5.485  0.7862E+01  0.3722E+03
      5.552  0.7459E+01  0.3727E+03
      5.619  0.5124E+01  0.3731E+03
      5.686  0.8271E+01  0.3736E+03
      5.753  0.6327E+01  0.3741E+03
      5.821  0.8059E+01  0.3746E+03
      5.888  0.6237E+01  0.3750E+03
      5.955  0.7486E+01  0.3755E+03
      6.022  0.4325E+01  0.3758E+03
      6.089  0.4709E+01  0.3761E+03
      6.156  0.7942E+01  0.3767E+03
      6.224  0.5166E+01  0.3770E+03
      6.291  0.5944E+01  0.3774E+03
      6.358  0.5363E+01  0.3778E+03
      6.425  0.6937E+01  0.3783E+03
      6.492  0.3912E+01  0.3785E+03
      6.559  0.6970E+01  0.3790E+03
      6.627  0.6914E+01  0.3794E+03
      6.694  0.5684E+01  0.3798E+03
      6.761  0.8583E+01  0.3804E+03
      6.828  0.1310E+02  0.3813E+03
      6.895  0.9128E+01  0.3819E+03
      6.962  0.8469E+01  0.3825E+03
      7.029  0.1004E+02  0.3831E+03
      7.097  0.1062E+02  0.3839E+03
      7.164  0.9045E+01  0.3845E+03
      7.231  0.8954E+01  0.3851E+03
      7.298  0.8344E+01  0.3856E+03
      7.365  0.1065E+02  0.3863E+03
      7.432  0.9592E+01  0.3870E+03
      7.500  0.1127E+02  0.3878E+03
      7.567  0.9420E+01  0.3884E+03
      7.634  0.7792E+01  0.3889E+03
      7.701  0.1008E+02  0.3896E+03
      7.768  0.6790E+01  0.3900E+03
      7.835  0.1374E+02  0.3910E+03
      7.903  0.6838E+01  0.3914E+03
      7.970  0.1074E+02  0.3922E+03
      8.037  0.7411E+01  0.3926E+03
      8.104  0.9145E+01  0.3933E+03
      8.171  0.1054E+02  0.3940E+03
      8.238  0.9638E+01  0.3946E+03
      8.306  0.9006E+01  0.3952E+03
      8.373  0.8920E+01  0.3958E+03
      8.440  0.8599E+01  0.3964E+03
      8.507  0.7920E+01  0.3969E+03
      8.574  0.7397E+01  0.3974E+03
      8.641  0.7240E+01  0.3979E+03
      8.708  0.1082E+02  0.3986E+03
      8.776  0.8089E+01  0.3992E+03
      8.843  0.7873E+01  0.3997E+03
      8.910  0.1037E+02  0.4004E+03
      8.977  0.7343E+01  0.4009E+03
      9.044  0.7665E+01  0.4014E+03
      9.111  0.7430E+01  0.4019E+03
      9.179  0.5415E+01  0.4023E+03
      9.246  0.9863E+01  0.4030E+03
      9.313  0.8084E+01  0.4035E+03
      9.380  0.8749E+01  0.4041E+03
      9.447  0.6805E+01  0.4045E+03
      9.514  0.7201E+01  0.4050E+03
      9.582  0.8436E+01  0.4056E+03
      9.649  0.6669E+01  0.4060E+03
      9.716  0.6971E+01  0.4065E+03
      9.783  0.9534E+01  0.4072E+03
      9.850  0.8003E+01  0.4077E+03
      9.917  0.1014E+02  0.4084E+03
      9.984  0.9578E+01  0.4090E+03
     10.052  0.9242E+01  0.4096E+03
     10.119  0.1329E+02  0.4105E+03
     10.186  0.7211E+01  0.4110E+03
     10.253  0.1119E+02  0.4118E+03
     10.320  0.1134E+02  0.4125E+03
     10.387  0.1021E+02  0.4132E+03
     10.455  0.8364E+01  0.4138E+03
     10.522  0.1173E+02  0.4146E+03
     10.589  0.1274E+02  0.4154E+03
     10.656  0.9674E+01  0.4161E+03
     10.723  0.1188E+02  0.4169E+03
     10.790  0.1061E+02  0.4176E+03
     10.858  0.1408E+02  0.4185E+03
     10.925  0.9189E+01  0.4192E+03
     10.992  0.9926E+01  0.4198E+03
     11.059  0.1325E+02  0.4207E+03
     11.126  0.1219E+02  0.4215E+03
     11.193  0.7245E+01  0.4220E+03
     11.261  0.1469E+02  0.4230E+03
     11.328  0.1023E+02  0.4237E+03
     11.395  0.1069E+02  0.4244E+03
     11.462  0.1128E+02  0.4252E+03
     11.529  0.1561E+02  0.4262E+03
     11.596  0.1081E+02  0.4269E+03
     11.663  0.8512E+01  0.4275E+03
     11.731  0.1325E+02  0.4284E+03
     11.798  0.7482E+01  0.4289E+03
     11.865  0.8065E+01  0.4295E+03
     11.932  0.7320E+01  0.4299E+03
     11.999  0.7342E+01  0.4304E+03
     12.066  0.5155E+01  0.4308E+03
     12.134  0.4740E+01  0.4311E+03
     12.201  0.3611E+01  0.4313E+03
     12.268  0.2482E+01  0.4315E+03
     12.335  0.1635E+01  0.4316E+03
     12.402  0.2310E+01  0.4318E+03
     12.469  0.1516E+01  0.4319E+03
     12.537  0.9645E+00  0.4319E+03
     12.604  0.4056E+00  0.4320E+03
     12.671  0.1646E-03  0.4320E+03
     12.738  0.4134E+00  0.4320E+03
     12.805  0.0000E+00  0.4320E+03
     12.872  0.0000E+00  0.4320E+03
     12.940  0.0000E+00  0.4320E+03
     13.007  0.0000E+00  0.4320E+03
     13.074  0.0000E+00  0.4320E+03
     13.141  0.0000E+00  0.4320E+03
     13.208  0.0000E+00  0.4320E+03
     13.275  0.0000E+00  0.4320E+03
     13.342  0.0000E+00  0.4320E+03
     13.410  0.0000E+00  0.4320E+03
     13.477  0.0000E+00  0.4320E+03
     13.544  0.0000E+00  0.4320E+03
     13.611  0.0000E+00  0.4320E+03
