   32   32    1    1
  0.1275737E+02  0.7418288E-09  0.7418288E-09  0.7418288E-09  0.5000000E-15
  1.000000000000000E-004
  CAR 
 unknown system                          
  352  196  216
 
  0.0000000E+00  0.0000000E+00  0.0000000E+00  0.5787037E-03
   1       -5.6209
   2       -2.9905
   3       -2.9874
   4       -2.9874
   5       -2.9874
   6       -2.9874
   7       -2.9844
   8       -1.5200
   9       -1.5200
  10       -1.5199
  11       -1.5199
  12       -1.3056
  13       -1.3055
  14       -1.3055
  15       -1.1849
  16       -1.1827
  17       -1.1827
  18       -1.1817
  19       -1.1814
  20       -1.1814
  21       -1.1814
  22       -1.1814
  23       -1.1812
  24       -1.1801
  25       -1.1801
  26       -1.1779
  27       -0.9008
  28       -0.9008
  29       -0.9008
  30       -0.6355
  31       -0.6337
  32       -0.6337
  33       -0.6337
  34       -0.6337
  35       -0.6320
  36       -0.3000
  37       -0.2984
  38       -0.2984
  39       -0.2984
  40       -0.2984
  41       -0.2969
  42       -0.1083
  43       -0.1075
  44       -0.1075
  45       -0.1055
  46       -0.1055
  47       -0.1054
  48       -0.1054
  49       -0.1054
  50       -0.1053
  51       -0.1053
  52       -0.1046
  53       -0.1046
  54       -0.1045
  55       -0.1039
  56       -0.1039
  57       -0.1037
  58       -0.1036
  59       -0.1036
  60       -0.1036
  61       -0.1036
  62       -0.1035
  63       -0.1020
  64       -0.1020
  65       -0.0999
  66        0.0827
  67        0.0849
  68        0.0849
  69        0.0852
  70        0.0854
  71        0.0854
  72        0.0854
  73        0.0854
  74        0.0856
  75        0.0858
  76        0.0858
  77        0.0880
  78        0.3082
  79        0.3082
  80        0.3082
  81        0.3082
  82        0.3082
  83        0.3082
  84        0.3082
  85        0.3082
  86        0.3323
  87        0.3323
  88        0.3323
  89        0.6681
  90        0.6695
  91        0.6695
  92        0.6696
  93        0.6696
  94        0.6710
  95        0.7819
  96        0.7824
  97        0.7831
  98        0.7831
  99        0.7835
 100        0.7835
 101        0.7835
 102        0.7835
 103        0.7840
 104        0.7840
 105        0.7847
 106        0.7851
 107        0.9194
 108        0.9194
 109        0.9209
 110        0.9209
 111        0.9211
 112        0.9211
 113        0.9211
 114        0.9211
 115        0.9213
 116        0.9213
 117        0.9228
 118        0.9228
 119        1.0340
 120        1.0349
 121        1.0349
 122        1.0349
 123        1.0349
 124        1.0359
 125        1.0609
 126        1.0609
 127        1.0622
 128        1.0624
 129        1.0625
 130        1.0626
 131        1.0626
 132        1.0626
 133        1.0627
 134        1.0630
 135        1.0644
 136        1.0644
 137        1.0667
 138        1.0670
 139        1.3078
 140        1.3086
 141        1.3086
 142        1.3086
 143        1.3086
 144        1.3093
 145        1.5551
 146        1.5552
 147        1.5552
 148        1.5679
 149        1.5679
 150        1.5679
 151        1.5679
 152        1.5679
 153        1.5679
 154        1.5679
 155        1.5679
 156        1.6916
 157        1.6919
 158        1.6919
 159        1.6919
 160        1.6919
 161        1.6919
 162        1.6925
 163        1.6926
 164        1.6926
 165        1.6926
 166        1.6926
 167        1.6929
 168        2.3794
 169        2.3794
 170        2.3794
 171        2.3794
 172        2.7979
 173        2.7982
 174        2.7982
 175        2.7990
 176        2.7993
 177        2.7993
 178        2.7993
 179        2.7993
 180        2.7996
 181        2.8005
 182        2.8005
 183        2.8008
 184        4.7233
 185        4.7233
 186        4.7234
 187        6.5355
 188        6.5355
 189        6.5355
 190        6.5356
 191        9.0853
 192        9.0853
 193        9.0888
 194        9.0888
 195        9.0892
 196        9.0892
 197        9.0892
 198        9.0892
 199        9.0895
 200        9.0895
 201        9.0930
 202        9.0930
 203        9.7495
 204        9.7495
 205        9.7495
 206       11.1079
 207       11.1107
 208       11.1107
 209       11.1107
 210       11.1107
 211       11.1134
 212       11.2976
 213       11.2979
 214       11.2980
 215       11.2980
 216       11.2982
 
  0.8333333E-01  0.0000000E+00  0.0000000E+00  0.1157407E-02
   1       -5.6009
   2       -3.3603
   3       -2.9711
   4       -2.9710
   5       -2.9710
   6       -2.9710
   7       -2.6166
   8       -1.5157
   9       -1.5157
  10       -1.5157
  11       -1.5157
  12       -1.3835
  13       -1.3834
  14       -1.3834
  15       -1.3834
  16       -1.3058
  17       -1.2965
  18       -1.2965
  19       -1.1902
  20       -1.1902
  21       -1.1902
  22       -1.1902
  23       -0.9984
  24       -0.9984
  25       -0.9984
  26       -0.9983
  27       -0.8958
  28       -0.8955
  29       -0.8955
  30       -0.6494
  31       -0.6492
  32       -0.6268
  33       -0.6268
  34       -0.6268
  35       -0.6267
  36       -0.3786
  37       -0.2962
  38       -0.2962
  39       -0.2962
  40       -0.2962
  41       -0.2355
  42       -0.2355
  43       -0.2177
  44       -0.1193
  45       -0.1190
  46       -0.1190
  47       -0.1189
  48       -0.1130
  49       -0.1130
  50       -0.1130
  51       -0.1130
  52       -0.1048
  53       -0.1046
  54       -0.1046
  55       -0.1046
  56       -0.0922
  57       -0.0922
  58       -0.0922
  59       -0.0920
  60       -0.0822
  61       -0.0821
  62       -0.0821
  63       -0.0818
  64        0.0219
  65        0.0220
  66        0.0220
  67        0.0220
  68        0.0365
  69        0.0365
  70        0.0897
  71        0.0897
  72        0.0897
  73        0.0897
  74        0.1370
  75        0.1370
  76        0.1370
  77        0.1370
  78        0.3048
  79        0.3048
  80        0.3048
  81        0.3048
  82        0.3131
  83        0.3131
  84        0.3131
  85        0.3131
  86        0.3268
  87        0.3368
  88        0.3368
  89        0.6424
  90        0.6425
  91        0.6425
  92        0.6425
  93        0.6753
  94        0.7011
  95        0.7623
  96        0.7624
  97        0.7624
  98        0.7624
  99        0.7820
 100        0.7820
 101        0.7820
 102        0.7820
 103        0.8057
 104        0.8057
 105        0.8057
 106        0.8057
 107        0.8358
 108        0.8358
 109        0.9210
 110        0.9210
 111        0.9210
 112        0.9211
 113        0.9445
 114        0.9445
 115        0.9445
 116        0.9445
 117        1.0093
 118        1.0093
 119        1.0221
 120        1.0222
 121        1.0222
 122        1.0222
 123        1.0350
 124        1.0351
 125        1.0351
 126        1.0351
 127        1.0479
 128        1.0479
 129        1.0617
 130        1.0687
 131        1.0842
 132        1.0842
 133        1.0842
 134        1.0843
 135        1.1115
 136        1.1115
 137        1.1115
 138        1.1115
 139        1.2767
 140        1.3142
 141        1.3142
 142        1.3142
 143        1.3142
 144        1.3405
 145        1.5097
 146        1.5097
 147        1.5097
 148        1.5097
 149        1.5487
 150        1.5487
 151        1.5530
 152        1.5625
 153        1.5625
 154        1.5625
 155        1.5625
 156        1.6590
 157        1.6590
 158        1.6842
 159        1.6842
 160        1.6842
 161        1.6842
 162        1.6843
 163        1.6843
 164        1.6916
 165        1.6919
 166        1.6926
 167        1.6929
 168        2.4117
 169        2.4117
 170        2.4117
 171        2.4117
 172        2.5443
 173        2.5443
 174        2.5443
 175        2.5443
 176        2.7978
 177        2.7978
 178        2.7978
 179        2.7978
 180        3.0996
 181        3.0996
 182        3.0996
 183        3.0996
 184        4.5791
 185        4.7744
 186        4.7744
 187        6.5968
 188        6.5968
 189        6.5968
 190        6.5968
 191        8.5434
 192        8.5434
 193        8.7801
 194        8.7801
 195        8.7801
 196        8.7802
 197        9.1159
 198        9.1159
 199        9.1159
 200        9.1159
 201        9.6552
 202        9.6552
 203        9.7576
 204        9.7576
 205        9.9344
 206       10.9218
 207       10.9218
 208       11.2060
 209       11.2060
 210       11.2060
 211       11.2060
 212       11.5221
 213       11.5233
 214       11.5647
 215       11.5647
 216       11.5647
 
  0.1666667E+00  0.0000000E+00  0.0000000E+00  0.1157407E-02
   1       -5.5409
   2       -3.7218
   3       -2.9221
   4       -2.9221
   5       -2.9221
   6       -2.9221
   7       -2.2662
   8       -1.5980
   9       -1.5980
  10       -1.5980
  11       -1.5980
  12       -1.5032
  13       -1.5032
  14       -1.5032
  15       -1.5031
  16       -1.3076
  17       -1.2696
  18       -1.2696
  19       -1.2148
  20       -1.2148
  21       -1.2148
  22       -1.2148
  23       -0.8807
  24       -0.8796
  25       -0.8796
  26       -0.8378
  27       -0.8378
  28       -0.8378
  29       -0.8378
  30       -0.6933
  31       -0.6932
  32       -0.6064
  33       -0.6064
  34       -0.6064
  35       -0.6064
  36       -0.4570
  37       -0.3536
  38       -0.3536
  39       -0.2897
  40       -0.2897
  41       -0.2897
  42       -0.2897
  43       -0.1381
  44       -0.1376
  45       -0.1376
  46       -0.1375
  47       -0.1375
  48       -0.1352
  49       -0.1352
  50       -0.1352
  51       -0.1352
  52       -0.1026
  53       -0.1024
  54       -0.1024
  55       -0.1024
  56       -0.0847
  57       -0.0847
  58       -0.0847
  59       -0.0845
  60       -0.0510
  61       -0.0510
  62       -0.0510
  63       -0.0510
  64       -0.0196
  65       -0.0196
  66       -0.0196
  67       -0.0195
  68        0.1021
  69        0.1021
  70        0.1021
  71        0.1021
  72        0.1782
  73        0.1782
  74        0.1782
  75        0.1782
  76        0.1898
  77        0.1898
  78        0.2946
  79        0.2946
  80        0.2946
  81        0.2946
  82        0.3104
  83        0.3276
  84        0.3276
  85        0.3276
  86        0.3276
  87        0.3502
  88        0.3502
  89        0.5829
  90        0.5829
  91        0.5829
  92        0.5829
  93        0.7047
  94        0.7126
  95        0.7126
  96        0.7126
  97        0.7126
  98        0.7547
  99        0.7547
 100        0.7884
 101        0.8016
 102        0.8016
 103        0.8016
 104        0.8018
 105        0.8428
 106        0.8428
 107        0.8428
 108        0.8428
 109        0.9209
 110        0.9209
 111        0.9209
 112        0.9210
 113        0.9884
 114        0.9884
 115        0.9888
 116        0.9888
 117        0.9900
 118        0.9900
 119        0.9904
 120        0.9904
 121        1.0350
 122        1.0350
 123        1.0350
 124        1.0350
 125        1.0468
 126        1.0748
 127        1.0843
 128        1.0844
 129        1.0993
 130        1.0993
 131        1.1355
 132        1.1355
 133        1.1355
 134        1.1355
 135        1.1681
 136        1.1681
 137        1.1682
 138        1.1682
 139        1.2455
 140        1.3354
 141        1.3354
 142        1.3354
 143        1.3354
 144        1.3627
 145        1.3627
 146        1.3627
 147        1.3627
 148        1.3719
 149        1.5294
 150        1.5294
 151        1.5464
 152        1.5465
 153        1.5465
 154        1.5465
 155        1.5467
 156        1.5664
 157        1.5664
 158        1.6598
 159        1.6598
 160        1.6598
 161        1.6598
 162        1.6614
 163        1.6614
 164        1.6916
 165        1.6920
 166        1.6925
 167        1.6929
 168        2.3261
 169        2.3261
 170        2.3261
 171        2.3261
 172        2.4845
 173        2.4846
 174        2.4846
 175        2.4846
 176        2.7932
 177        2.7932
 178        2.7932
 179        2.7932
 180        3.4525
 181        3.4525
 182        3.4525
 183        3.4525
 184        4.1999
 185        4.9214
 186        4.9214
 187        6.7772
 188        6.7772
 189        6.7772
 190        6.7772
 191        8.0192
 192        8.0192
 193        8.1459
 194        8.1459
 195        8.1459
 196        8.1460
 197        9.1956
 198        9.1956
 199        9.1956
 200        9.1956
 201        9.7819
 202        9.7819
 203       10.2405
 204       10.2405
 205       10.4362
 206       10.6953
 207       10.6953
 208       11.2039
 209       11.2039
 210       11.2040
 211       11.2040
 212       11.2678
 213       11.2678
 214       11.2678
 215       11.2678
 216       11.4765
 
  0.2500000E+00  0.0000000E+00  0.0000000E+00  0.1157407E-02
   1       -5.4414
   2       -4.0628
   3       -2.8414
   4       -2.8414
   5       -2.8414
   6       -2.8414
   7       -1.9588
   8       -1.8172
   9       -1.8172
  10       -1.8172
  11       -1.8172
  12       -1.4826
  13       -1.4826
  14       -1.4826
  15       -1.4826
  16       -1.3137
  17       -1.2507
  18       -1.2507
  19       -1.2507
  20       -1.2507
  21       -1.2259
  22       -1.2259
  23       -0.8559
  24       -0.8529
  25       -0.8529
  26       -0.7594
  27       -0.7594
  28       -0.7006
  29       -0.7006
  30       -0.7006
  31       -0.7006
  32       -0.5735
  33       -0.5735
  34       -0.5735
  35       -0.5735
  36       -0.5322
  37       -0.4597
  38       -0.4597
  39       -0.2790
  40       -0.2790
  41       -0.2790
  42       -0.2790
  43       -0.1708
  44       -0.1708
  45       -0.1708
  46       -0.1708
  47       -0.1588
  48       -0.1587
  49       -0.1587
  50       -0.1587
  51       -0.1290
  52       -0.1290
  53       -0.1290
  54       -0.1289
  55       -0.0992
  56       -0.0991
  57       -0.0991
  58       -0.0991
  59       -0.0809
  60       -0.0809
  61       -0.0809
  62       -0.0808
  63       -0.0603
  64        0.0791
  65        0.0791
  66        0.0791
  67        0.0792
  68        0.1223
  69        0.1223
  70        0.1223
  71        0.1223
  72        0.2137
  73        0.2137
  74        0.2137
  75        0.2137
  76        0.2782
  77        0.2782
  78        0.2782
  79        0.2782
  80        0.2833
  81        0.3515
  82        0.3515
  83        0.3515
  84        0.3516
  85        0.3538
  86        0.3538
  87        0.3724
  88        0.3724
  89        0.5151
  90        0.5151
  91        0.5151
  92        0.5151
  93        0.6520
  94        0.6520
  95        0.6520
  96        0.6520
  97        0.6788
  98        0.6788
  99        0.7480
 100        0.8374
 101        0.8374
 102        0.8374
 103        0.8374
 104        0.8867
 105        0.8867
 106        0.8867
 107        0.8867
 108        0.9211
 109        0.9211
 110        0.9211
 111        0.9211
 112        0.9546
 113        0.9657
 114        0.9657
 115        0.9657
 116        0.9657
 117        1.0202
 118        1.0203
 119        1.0203
 120        1.0203
 121        1.0225
 122        1.0332
 123        1.0332
 124        1.0333
 125        1.0333
 126        1.0849
 127        1.1385
 128        1.1385
 129        1.1705
 130        1.1705
 131        1.1705
 132        1.1705
 133        1.1893
 134        1.1893
 135        1.1985
 136        1.1985
 137        1.1985
 138        1.1985
 139        1.2155
 140        1.2315
 141        1.2315
 142        1.2315
 143        1.2315
 144        1.3823
 145        1.3823
 146        1.3823
 147        1.3823
 148        1.4024
 149        1.4290
 150        1.4290
 151        1.4978
 152        1.4978
 153        1.5201
 154        1.5201
 155        1.5201
 156        1.5202
 157        1.5362
 158        1.6207
 159        1.6207
 160        1.6207
 161        1.6207
 162        1.6243
 163        1.6243
 164        1.6916
 165        1.6920
 166        1.6925
 167        1.6929
 168        2.1366
 169        2.1366
 170        2.1366
 171        2.1366
 172        2.5631
 173        2.5631
 174        2.5631
 175        2.5631
 176        2.7848
 177        2.7848
 178        2.7848
 179        2.7848
 180        3.6880
 181        3.8630
 182        3.8630
 183        3.8630
 184        3.8630
 185        5.1495
 186        5.1495
 187        7.0679
 188        7.0679
 189        7.0679
 190        7.0679
 191        7.4414
 192        7.4414
 193        7.4414
 194        7.4414
 195        7.5179
 196        7.5179
 197        9.3269
 198        9.3269
 199        9.3269
 200        9.3269
 201        9.8230
 202        9.8230
 203       10.4609
 204       10.4609
 205       10.4609
 206       10.4609
 207       10.4956
 208       10.4956
 209       10.8435
 210       10.8435
 211       11.0562
 212       11.0562
 213       11.0562
 214       11.0562
 215       11.1552
 216       11.3465
 
  0.3333333E+00  0.0000000E+00  0.0000000E+00  0.1157407E-02
   1       -5.3027
   2       -4.3773
   3       -2.7301
   4       -2.7301
   5       -2.7301
   6       -2.7301
   7       -2.0328
   8       -2.0328
   9       -2.0328
  10       -2.0328
  11       -1.7140
  12       -1.4546
  13       -1.4546
  14       -1.4546
  15       -1.4546
  16       -1.3296
  17       -1.2930
  18       -1.2929
  19       -1.2929
  20       -1.2929
  21       -1.1670
  22       -1.1670
  23       -0.8398
  24       -0.8398
  25       -0.8217
  26       -0.8155
  27       -0.8155
  28       -0.6031
  29       -0.5862
  30       -0.5862
  31       -0.5862
  32       -0.5862
  33       -0.5540
  34       -0.5540
  35       -0.5305
  36       -0.5304
  37       -0.5304
  38       -0.5304
  39       -0.2646
  40       -0.2646
  41       -0.2646
  42       -0.2645
  43       -0.2172
  44       -0.2171
  45       -0.2171
  46       -0.2171
  47       -0.2062
  48       -0.2062
  49       -0.2062
  50       -0.2062
  51       -0.1814
  52       -0.1813
  53       -0.1813
  54       -0.1813
  55       -0.0950
  56       -0.0948
  57       -0.0948
  58       -0.0948
  59       -0.0803
  60       -0.0803
  61       -0.0803
  62       -0.0801
  63        0.0134
  64        0.1444
  65        0.1444
  66        0.1445
  67        0.1445
  68        0.2133
  69        0.2133
  70        0.2133
  71        0.2133
  72        0.2462
  73        0.2489
  74        0.2489
  75        0.2489
  76        0.2489
  77        0.2565
  78        0.2565
  79        0.2565
  80        0.2566
  81        0.3844
  82        0.3845
  83        0.3845
  84        0.3845
  85        0.4034
  86        0.4034
  87        0.4488
  88        0.4488
  89        0.4488
  90        0.4488
  91        0.5273
  92        0.5273
  93        0.5896
  94        0.5896
  95        0.5896
  96        0.5896
  97        0.6091
  98        0.6091
  99        0.7983
 100        0.8823
 101        0.8824
 102        0.8824
 103        0.8824
 104        0.9219
 105        0.9219
 106        0.9219
 107        0.9219
 108        0.9300
 109        0.9300
 110        0.9300
 111        0.9300
 112        0.9480
 113        0.9481
 114        0.9481
 115        0.9481
 116        0.9615
 117        0.9615
 118        0.9615
 119        0.9616
 120        0.9894
 121        1.0251
 122        1.0252
 123        1.0253
 124        1.0253
 125        1.0276
 126        1.0276
 127        1.0277
 128        1.0278
 129        1.0988
 130        1.1870
 131        1.2031
 132        1.2033
 133        1.2177
 134        1.2628
 135        1.2628
 136        1.2640
 137        1.2640
 138        1.2642
 139        1.2642
 140        1.2775
 141        1.2775
 142        1.2997
 143        1.2997
 144        1.2997
 145        1.2997
 146        1.4312
 147        1.4546
 148        1.4546
 149        1.4598
 150        1.4598
 151        1.4598
 152        1.4598
 153        1.4841
 154        1.4841
 155        1.4841
 156        1.4842
 157        1.5218
 158        1.5692
 159        1.5692
 160        1.5692
 161        1.5692
 162        1.5741
 163        1.5741
 164        1.6916
 165        1.6921
 166        1.6924
 167        1.6929
 168        1.9690
 169        1.9690
 170        1.9690
 171        1.9690
 172        2.6309
 173        2.6309
 174        2.6309
 175        2.6309
 176        2.7715
 177        2.7715
 178        2.7715
 179        2.7715
 180        3.1248
 181        4.3325
 182        4.3325
 183        4.3325
 184        4.3325
 185        5.4422
 186        5.4422
 187        6.7412
 188        6.7412
 189        6.7413
 190        6.7413
 191        7.0411
 192        7.0411
 193        7.4566
 194        7.4566
 195        7.4566
 196        7.4567
 197        9.5076
 198        9.5076
 199        9.5076
 200        9.5076
 201        9.7513
 202        9.7513
 203        9.7513
 204        9.7513
 205        9.8819
 206        9.8819
 207       10.3240
 208       10.3240
 209       10.6696
 210       10.6696
 211       10.6696
 212       10.6696
 213       11.4539
 214       11.4539
 215       11.4590
 216       11.4618
 
  0.4166667E+00  0.0000000E+00  0.0000000E+00  0.1157407E-02
   1       -5.1256
   2       -4.6611
   3       -2.5904
   4       -2.5904
   5       -2.5904
   6       -2.5904
   7       -2.2374
   8       -2.2374
   9       -2.2374
  10       -2.2374
  11       -1.5398
  12       -1.4202
  13       -1.4202
  14       -1.4202
  15       -1.4202
  16       -1.3636
  17       -1.3373
  18       -1.3373
  19       -1.3373
  20       -1.3373
  21       -1.0952
  22       -1.0952
  23       -0.9268
  24       -0.9268
  25       -0.7786
  26       -0.7671
  27       -0.7671
  28       -0.6684
  29       -0.6365
  30       -0.6365
  31       -0.4977
  32       -0.4976
  33       -0.4976
  34       -0.4976
  35       -0.4835
  36       -0.4835
  37       -0.4835
  38       -0.4835
  39       -0.2733
  40       -0.2731
  41       -0.2731
  42       -0.2731
  43       -0.2684
  44       -0.2684
  45       -0.2684
  46       -0.2682
  47       -0.2469
  48       -0.2468
  49       -0.2468
  50       -0.2468
  51       -0.2043
  52       -0.2043
  53       -0.2043
  54       -0.2042
  55       -0.0906
  56       -0.0902
  57       -0.0902
  58       -0.0901
  59       -0.0822
  60       -0.0821
  61       -0.0821
  62       -0.0817
  63        0.0822
  64        0.1729
  65        0.1729
  66        0.1729
  67        0.1729
  68        0.1996
  69        0.2307
  70        0.2307
  71        0.2307
  72        0.2307
  73        0.2883
  74        0.2884
  75        0.2884
  76        0.2884
  77        0.3718
  78        0.3718
  79        0.3718
  80        0.3718
  81        0.3880
  82        0.3880
  83        0.3880
  84        0.3881
  85        0.4257
  86        0.4258
  87        0.4258
  88        0.4258
  89        0.4429
  90        0.4429
  91        0.5297
  92        0.5297
  93        0.5297
  94        0.5297
  95        0.5461
  96        0.5461
  97        0.7086
  98        0.7086
  99        0.7523
 100        0.7523
 101        0.7523
 102        0.7523
 103        0.8507
 104        0.9241
 105        0.9241
 106        0.9241
 107        0.9241
 108        0.9295
 109        0.9295
 110        0.9295
 111        0.9295
 112        0.9361
 113        0.9361
 114        0.9361
 115        0.9361
 116        0.9487
 117        0.9673
 118        0.9673
 119        0.9673
 120        0.9673
 121        1.0069
 122        1.0069
 123        1.0070
 124        1.0070
 125        1.0158
 126        1.0158
 127        1.0159
 128        1.0159
 129        1.0818
 130        1.0818
 131        1.1163
 132        1.1608
 133        1.2720
 134        1.2720
 135        1.3275
 136        1.3275
 137        1.3275
 138        1.3276
 139        1.3621
 140        1.3621
 141        1.3704
 142        1.3704
 143        1.3704
 144        1.3704
 145        1.4011
 146        1.4011
 147        1.4392
 148        1.4392
 149        1.4392
 150        1.4392
 151        1.4581
 152        1.5038
 153        1.5083
 154        1.5083
 155        1.5083
 156        1.5083
 157        1.5124
 158        1.5124
 159        1.5623
 160        1.5624
 161        1.5624
 162        1.5624
 163        1.5830
 164        1.6917
 165        1.6922
 166        1.6923
 167        1.6928
 168        1.8187
 169        1.8187
 170        1.8187
 171        1.8187
 172        2.5629
 173        2.6840
 174        2.6840
 175        2.6840
 176        2.6840
 177        2.7517
 178        2.7517
 179        2.7517
 180        2.7518
 181        4.8596
 182        4.8596
 183        4.8597
 184        4.8597
 185        5.7860
 186        5.7860
 187        6.0704
 188        6.0704
 189        6.0704
 190        6.0704
 191        6.5912
 192        6.5912
 193        7.9304
 194        7.9304
 195        7.9304
 196        7.9304
 197        9.0873
 198        9.0873
 199        9.0873
 200        9.0873
 201        9.7351
 202        9.7351
 203        9.7351
 204        9.7351
 205        9.9597
 206        9.9597
 207       10.1788
 208       10.1788
 209       10.3189
 210       10.3189
 211       10.3189
 212       10.3189
 213       11.5918
 214       11.5918
 215       11.5918
 216       11.5918
 
  0.5000000E+00  0.0000000E+00  0.0000000E+00  0.5787037E-03
   1       -4.9126
   2       -4.9098
   3       -2.4282
   4       -2.4256
   5       -2.4256
   6       -2.4254
   7       -2.4244
   8       -2.4242
   9       -2.4242
  10       -2.4216
  11       -1.4287
  12       -1.4279
  13       -1.3819
  14       -1.3819
  15       -1.3809
  16       -1.3807
  17       -1.3803
  18       -1.3801
  19       -1.3791
  20       -1.3791
  21       -1.0151
  22       -1.0143
  23       -1.0131
  24       -1.0124
  25       -0.7282
  26       -0.7263
  27       -0.7084
  28       -0.7084
  29       -0.7066
  30       -0.7066
  31       -0.4576
  32       -0.4576
  33       -0.4575
  34       -0.4573
  35       -0.4569
  36       -0.4568
  37       -0.4566
  38       -0.4566
  39       -0.3025
  40       -0.3017
  41       -0.3017
  42       -0.3017
  43       -0.3015
  44       -0.3015
  45       -0.3014
  46       -0.3006
  47       -0.2278
  48       -0.2272
  49       -0.2272
  50       -0.2266
  51       -0.2262
  52       -0.2256
  53       -0.2256
  54       -0.2251
  55       -0.0876
  56       -0.0862
  57       -0.0862
  58       -0.0859
  59       -0.0855
  60       -0.0852
  61       -0.0852
  62       -0.0838
  63        0.1443
  64        0.1449
  65        0.2015
  66        0.2018
  67        0.2018
  68        0.2022
  69        0.2023
  70        0.2026
  71        0.2026
  72        0.2029
  73        0.3337
  74        0.3337
  75        0.3337
  76        0.3343
  77        0.3346
  78        0.3351
  79        0.3352
  80        0.3352
  81        0.4731
  82        0.4734
  83        0.4734
  84        0.4743
  85        0.4748
  86        0.4756
  87        0.4756
  88        0.4759
  89        0.4898
  90        0.4898
  91        0.4914
  92        0.4914
  93        0.5525
  94        0.5531
  95        0.5531
  96        0.5531
  97        0.5536
  98        0.5536
  99        0.5536
 100        0.5542
 101        0.8944
 102        0.8944
 103        0.8953
 104        0.8953
 105        0.9014
 106        0.9022
 107        0.9281
 108        0.9281
 109        0.9283
 110        0.9285
 111        0.9285
 112        0.9287
 113        0.9289
 114        0.9289
 115        0.9719
 116        0.9725
 117        0.9725
 118        0.9725
 119        0.9732
 120        0.9733
 121        0.9733
 122        0.9739
 123        0.9953
 124        0.9955
 125        0.9959
 126        0.9959
 127        0.9963
 128        0.9963
 129        0.9967
 130        0.9969
 131        1.1364
 132        1.1377
 133        1.3392
 134        1.3392
 135        1.3393
 136        1.3394
 137        1.3860
 138        1.3862
 139        1.3862
 140        1.3862
 141        1.3869
 142        1.3869
 143        1.3869
 144        1.3872
 145        1.4399
 146        1.4399
 147        1.4407
 148        1.4407
 149        1.4410
 150        1.4410
 151        1.4411
 152        1.4411
 153        1.4412
 154        1.4412
 155        1.4420
 156        1.4420
 157        1.4824
 158        1.4824
 159        1.6824
 160        1.6829
 161        1.6829
 162        1.6831
 163        1.6831
 164        1.6833
 165        1.6833
 166        1.6839
 167        1.6917
 168        1.6922
 169        1.6923
 170        1.6928
 171        2.0383
 172        2.0402
 173        2.7220
 174        2.7225
 175        2.7230
 176        2.7230
 177        2.7238
 178        2.7238
 179        2.7244
 180        2.7248
 181        5.4384
 182        5.4389
 183        5.4389
 184        5.4404
 185        5.4411
 186        5.4426
 187        5.4426
 188        5.4431
 189        6.1698
 190        6.1698
 191        6.1727
 192        6.1727
 193        8.4755
 194        8.4755
 195        8.4755
 196        8.4771
 197        8.4777
 198        8.4792
 199        8.4792
 200        8.4793
 201       10.0043
 202       10.0043
 203       10.0062
 204       10.0063
 205       10.0066
 206       10.0067
 207       10.0086
 208       10.0086
 209       10.0578
 210       10.0580
 211       10.0581
 212       10.0584
 213       11.7607
 214       11.7609
 215       11.7617
 216       11.7619
 
  0.0000000E+00  0.8333333E-01  0.0000000E+00  0.2314815E-02
   1       -5.6009
   2       -3.3603
   3       -2.9734
   4       -2.9710
   5       -2.9710
   6       -2.9687
   7       -2.6166
   8       -1.5158
   9       -1.5157
  10       -1.5157
  11       -1.5157
  12       -1.3852
  13       -1.3834
  14       -1.3834
  15       -1.3816
  16       -1.3058
  17       -1.2965
  18       -1.2965
  19       -1.1915
  20       -1.1904
  21       -1.1900
  22       -1.1889
  23       -0.9999
  24       -0.9984
  25       -0.9984
  26       -0.9968
  27       -0.8958
  28       -0.8955
  29       -0.8955
  30       -0.6493