 vasp.4.6.28 25Jul05 complex 
 executed on             LinuxIFC date 2017.01.09  17:44:19
 running on    8 nodes
 distr:  one band on    1 nodes,    8 groups


--------------------------------------------------------------------------------------------------------


 INCAR:
 POTCAR:   PAW_PBE Cu 05Jan2001                   
 POTCAR:   PAW_PBE Cu 05Jan2001                   
   VRHFIN =Cu: d10 p1                                                           
   LEXCH  = PE                                                                  
   EATOM  =  1390.9800 eV,  102.2341 Ry                                         
                                                                                
   TITEL  = PAW_PBE Cu 05Jan2001                                                
   LULTRA =        F    use ultrasoft PP ?                                      
   IUNSCR =        1    unscreen: 0-lin 1-nonlin 2-no                           
   RPACOR =    2.000    partial core radius                                     
   POMASS =   63.546; ZVAL   =   11.000    mass and valenz                      
   RCORE  =    2.300    outmost cutoff radius                                   
   RWIGS  =    2.480; RWIGS  =    1.312    wigner-seitz radius (au A)           
   ENMAX  =  273.214; ENMIN  =  204.910 eV                                      
   RCLOC  =    1.712    cutoff for local pot                                    
   LCOR   =        T    correct aug charges                                     
   LPAW   =        T    paw PP                                                  
   EAUG   =  516.456                                                            
   DEXC   =    -.008                                                            
   RMAX   =    2.789    core radius for proj-oper                               
   RAUG   =    1.300    factor for augmentation sphere                          
   RDEP   =    2.302    radius for radial grids                                 
   QCUT   =   -4.481; QGAM   =    8.962    optimization parameters              
                                                                                
   Description                                                                  
     l     E      TYP  RCUT    TYP  RCUT                                        
     2   .000     23  2.300                                                     
     2   .000     23  2.300                                                     
     0   .000     23  2.300                                                     
     0   .000     23  2.300                                                     
     1  -.200     23  2.300                                                     
     1   .000     23  2.300                                                     
     3   .000      7   .000                                                     
  local pseudopotential read in
  partial core-charges read in
  atomic valenz-charges read in
  non local Contribution for L=           2  read in
    real space projection operators read in
  non local Contribution for L=           2  read in
    real space projection operators read in
  non local Contribution for L=           0  read in
    real space projection operators read in
  non local Contribution for L=           0  read in
    real space projection operators read in
  non local Contribution for L=           1  read in
    real space projection operators read in
  non local Contribution for L=           1  read in
    real space projection operators read in
    PAW grid and wavefunctions read in
 
   number of l-projection  operators is LMAX  =           6
   number of lm-projection operators is LMMAX =          18
 

 ----------------------------------------------------------------------------- 
|                                                                             |
|  ADVICE TO THIS USER RUNNING 'VASP/VAMP'   (HEAR YOUR MASTER'S VOICE ...):  |
|                                                                             |
|      You have a (more or less) 'large supercell' and for larger cells       |
|      it might be more efficient to use real space projection operators      |
|      So try LREAL= Auto  in the INCAR   file.                               |
|      Mind: If you want to do an extremely accurate calculations keep the    |
|      reciprocal projection scheme          (i.e. LREAL=.FALSE.)             |
|                                                                             |
 ----------------------------------------------------------------------------- 

 PAW_PBE Cu 05Jan2001                   :
 energy of atom  1       EATOM=-1390.9800
 kinetic energy error for atom=    0.0006 (will be added to EATOM!!)
 
 EXHCAR: internal setup
 exchange correlation table for  LEXCH =        8
   RHO(1)=    0.500       N(1)  =     2000
   RHO(2)=  100.500       N(2)  =     4000
 
 POSCAR: Cu                                      
  positions in direct lattice
  No initial velocities read in
 


--------------------------------------------------------------------------------------------------------


 ion  position               nearest neighbor table
   1  0.001  0.000  0.000-   9 2.62  11 2.62  17 2.62  21 2.62  25 2.62  27 2.62  29 2.62  31 2.62
                            10 2.63  18 2.63  12 2.63  22 2.63
   2  0.500  0.000  0.000-   9 2.62  10 2.62  11 2.62  12 2.62  17 2.62  18 2.62  21 2.62  22 2.62
                            26 2.62  28 2.62  30 2.62  32 2.62
   3  0.000  0.500  0.000-   9 2.62  10 2.62  11 2.62  12 2.62  19 2.62  20 2.62  23 2.62  24 2.62
                            25 2.62  27 2.62  29 2.62  31 2.62
   4  0.500  0.500  0.000-   9 2.62  10 2.62  11 2.62  12 2.62  19 2.62  20 2.62  23 2.62  24 2.62
                            26 2.62  28 2.62  30 2.62  32 2.62
   5  0.000  0.000  0.500-  13 2.62  14 2.62  15 2.62  16 2.62  17 2.62  18 2.62  21 2.62  22 2.62
                            25 2.62  27 2.62  29 2.62  31 2.62
   6  0.500  0.000  0.500-  13 2.62  14 2.62  15 2.62  16 2.62  17 2.62  18 2.62  21 2.62  22 2.62
                            26 2.62  28 2.62  30 2.62  32 2.62
   7  0.000  0.500  0.500-  13 2.62  14 2.62  15 2.62  16 2.62  19 2.62  20 2.62  23 2.62  24 2.62
                            25 2.62  27 2.62  29 2.62  31 2.62
   8  0.500  0.500  0.500-  13 2.62  14 2.62  15 2.62  16 2.62  19 2.62  20 2.62  23 2.62  24 2.62
                            26 2.62  28 2.62  30 2.62  32 2.62
   9  0.250  0.250  0.000-   1 2.62   2 2.62   3 2.62   4 2.62  17 2.62  19 2.62  21 2.62  23 2.62
                            25 2.62  26 2.62  29 2.62  30 2.62
  10  0.750  0.250  0.000-   2 2.62   3 2.62   4 2.62  18 2.62  20 2.62  22 2.62  24 2.62  25 2.62
                            26 2.62  29 2.62  30 2.62   1 2.63
  11  0.250  0.750  0.000-   1 2.62   2 2.62   3 2.62   4 2.62  17 2.62  19 2.62  21 2.62  23 2.62
                            27 2.62  28 2.62  31 2.62  32 2.62
  12  0.750  0.750  0.000-   2 2.62   3 2.62   4 2.62  18 2.62  20 2.62  22 2.62  24 2.62  27 2.62
                            28 2.62  31 2.62  32 2.62   1 2.63
  13  0.250  0.250  0.500-   5 2.62   6 2.62   7 2.62   8 2.62  17 2.62  19 2.62  21 2.62  23 2.62
                            25 2.62  26 2.62  29 2.62  30 2.62
  14  0.750  0.250  0.500-   5 2.62   6 2.62   7 2.62   8 2.62  18 2.62  20 2.62  22 2.62  24 2.62
                            25 2.62  26 2.62  29 2.62  30 2.62
  15  0.250  0.750  0.500-   5 2.62   6 2.62   7 2.62   8 2.62  17 2.62  19 2.62  21 2.62  23 2.62
                            27 2.62  28 2.62  31 2.62  32 2.62
  16  0.750  0.750  0.500-   5 2.62   6 2.62   7 2.62   8 2.62  18 2.62  20 2.62  22 2.62  24 2.62
                            27 2.62  28 2.62  31 2.62  32 2.62
  17  0.250  0.000  0.250-   1 2.62   2 2.62   5 2.62   6 2.62   9 2.62  11 2.62  13 2.62  15 2.62
                            25 2.62  26 2.62  27 2.62  28 2.62
  18  0.750  0.000  0.250-   2 2.62   5 2.62   6 2.62  10 2.62  12 2.62  14 2.62  16 2.62  25 2.62
                            26 2.62  27 2.62  28 2.62   1 2.63
  19  0.250  0.500  0.250-   3 2.62   4 2.62   7 2.62   8 2.62   9 2.62  11 2.62  13 2.62  15 2.62
                            25 2.62  26 2.62  27 2.62  28 2.62
  20  0.750  0.500  0.250-   3 2.62   4 2.62   7 2.62   8 2.62  10 2.62  12 2.62  14 2.62  16 2.62
                            25 2.62  26 2.62  27 2.62  28 2.62
  21  0.250  0.000  0.750-   1 2.62   2 2.62   5 2.62   6 2.62   9 2.62  11 2.62  13 2.62  15 2.62
                            29 2.62  30 2.62  31 2.62  32 2.62
  22  0.750  0.000  0.750-   2 2.62   5 2.62   6 2.62  10 2.62  12 2.62  14 2.62  16 2.62  29 2.62
                            30 2.62  31 2.62  32 2.62   1 2.63
  23  0.250  0.500  0.750-   3 2.62   4 2.62   7 2.62   8 2.62   9 2.62  11 2.62  13 2.62  15 2.62
                            29 2.62  30 2.62  31 2.62  32 2.62
  24  0.750  0.500  0.750-   3 2.62   4 2.62   7 2.62   8 2.62  10 2.62  12 2.62  14 2.62  16 2.62
                            29 2.62  30 2.62  31 2.62  32 2.62
  25  0.000  0.250  0.250-   3 2.62   5 2.62   7 2.62   9 2.62  10 2.62  13 2.62  14 2.62  17 2.62
                            18 2.62  19 2.62  20 2.62   1 2.62
  26  0.500  0.250  0.250-   2 2.62   4 2.62   6 2.62   8 2.62   9 2.62  10 2.62  13 2.62  14 2.62
                            17 2.62  18 2.62  19 2.62  20 2.62
  27  0.000  0.750  0.250-   3 2.62   5 2.62   7 2.62  11 2.62  12 2.62  15 2.62  16 2.62  17 2.62
                            18 2.62  19 2.62  20 2.62   1 2.62
  28  0.500  0.750  0.250-   2 2.62   4 2.62   6 2.62   8 2.62  11 2.62  12 2.62  15 2.62  16 2.62
                            17 2.62  18 2.62  19 2.62  20 2.62
  29  0.000  0.250  0.750-   3 2.62   5 2.62   7 2.62   9 2.62  10 2.62  13 2.62  14 2.62  21 2.62
                            22 2.62  23 2.62  24 2.62   1 2.62
  30  0.500  0.250  0.750-   2 2.62   4 2.62   6 2.62   8 2.62   9 2.62  10 2.62  13 2.62  14 2.62
                            21 2.62  22 2.62  23 2.62  24 2.62
  31  0.000  0.750  0.750-   3 2.62   5 2.62   7 2.62  11 2.62  12 2.62  15 2.62  16 2.62  21 2.62
                            22 2.62  23 2.62  24 2.62   1 2.62
  32  0.500  0.750  0.750-   2 2.62   4 2.62   6 2.62   8 2.62  11 2.62  12 2.62  15 2.62  16 2.62
                            21 2.62  22 2.62  23 2.62  24 2.62
 
  LATTYP: Found a simple cubic cell.
 ALAT       =     7.4182882559
  
  Lattice vectors:
  
 A1 = (   7.4182882559,   0.0000000000,   0.0000000000)
 A2 = (   0.0000000000,   7.4182882559,   0.0000000000)
 A3 = (   0.0000000000,   0.0000000000,   7.4182882559)
 Subroutine PRICEL returns:
 Original cell was already a primitive cell.
 

Analysis of symmetry for initial positions (statically):

 Routine SETGRP: Setting up the symmetry group for a 
 simple cubic supercell.


 Subroutine GETGRP returns: Found  8 space group operations
 (whereof  8 operations were pure point group operations)
 out of a pool of 48 trial point group operations.


The static configuration has the point symmetry C_4v.

Analysis of symmetry for dynamics (positions and initial velocities):

 Subroutine DYNSYM returns: Found  8 space group operations
 (whereof  8 operations were pure point group operations)
 out of a pool of  8 trial space group operations
 (whereof  8 operations were pure point group operations)
 and found also     1 'primitive' translations


The dynamic configuration has the point symmetry C_4v.
 
 
 KPOINTS: Automatic mesh                          

Automatic generation of k-mesh.
 
 Subroutine IBZKPT returns following result:
 ===========================================
 
 Found    196 irreducible k-points:
 
 Following reciprocal coordinates:
            Coordinates               Weight
  0.000000  0.000000  0.000000      1.000000
  0.083333  0.000000  0.000000      2.000000
  0.166667  0.000000  0.000000      2.000000
  0.250000  0.000000  0.000000      2.000000
  0.333333  0.000000  0.000000      2.000000
  0.416667  0.000000  0.000000      2.000000
  0.500000  0.000000  0.000000      1.000000
  0.000000  0.083333  0.000000      4.000000
  0.083333  0.083333  0.000000      8.000000
  0.166667  0.083333  0.000000      8.000000
  0.250000  0.083333  0.000000      8.000000
  0.333333  0.083333  0.000000      8.000000
  0.416667  0.083333  0.000000      8.000000
  0.500000  0.083333  0.000000      4.000000
  0.000000  0.166667  0.000000      4.000000
  0.083333  0.166667  0.000000      8.000000
  0.166667  0.166667  0.000000      8.000000
  0.250000  0.166667  0.000000      8.000000
  0.333333  0.166667  0.000000      8.000000
  0.416667  0.166667  0.000000      8.000000
  0.500000  0.166667  0.000000      4.000000
  0.000000  0.250000  0.000000      4.000000
  0.083333  0.250000  0.000000      8.000000
  0.166667  0.250000  0.000000      8.000000
  0.250000  0.250000  0.000000      8.000000
  0.333333  0.250000  0.000000      8.000000
  0.416667  0.250000  0.000000      8.000000
  0.500000  0.250000  0.000000      4.000000
  0.000000  0.333333  0.000000      4.000000
  0.083333  0.333333  0.000000      8.000000
  0.166667  0.333333  0.000000      8.000000
  0.250000  0.333333  0.000000      8.000000
  0.333333  0.333333  0.000000      8.000000
  0.416667  0.333333  0.000000      8.000000
  0.500000  0.333333  0.000000      4.000000
  0.000000  0.416667  0.000000      4.000000
  0.083333  0.416667  0.000000      8.000000
  0.166667  0.416667  0.000000      8.000000
  0.250000  0.416667  0.000000      8.000000
  0.333333  0.416667  0.000000      8.000000
  0.416667  0.416667  0.000000      8.000000
  0.500000  0.416667  0.000000      4.000000
  0.000000  0.500000  0.000000      2.000000
  0.083333  0.500000  0.000000      4.000000
  0.166667  0.500000  0.000000      4.000000
  0.250000  0.500000  0.000000      4.000000
  0.333333  0.500000  0.000000      4.000000
  0.416667  0.500000  0.000000      4.000000
  0.500000  0.500000  0.000000      2.000000
  0.000000  0.083333  0.083333      4.000000
  0.083333  0.083333  0.083333      8.000000
  0.166667  0.083333  0.083333      8.000000
  0.250000  0.083333  0.083333      8.000000
  0.333333  0.083333  0.083333      8.000000
  0.416667  0.083333  0.083333      8.000000
  0.500000  0.083333  0.083333      4.000000
  0.000000  0.166667  0.083333      8.000000
  0.083333  0.166667  0.083333     16.000000
  0.166667  0.166667  0.083333     16.000000
  0.250000  0.166667  0.083333     16.000000
  0.333333  0.166667  0.083333     16.000000
  0.416667  0.166667  0.083333     16.000000
  0.500000  0.166667  0.083333      8.000000
  0.000000  0.250000  0.083333      8.000000
  0.083333  0.250000  0.083333     16.000000
  0.166667  0.250000  0.083333     16.000000
  0.250000  0.250000  0.083333     16.000000
  0.333333  0.250000  0.083333     16.000000
  0.416667  0.250000  0.083333     16.000000
  0.500000  0.250000  0.083333      8.000000
  0.000000  0.333333  0.083333      8.000000
  0.083333  0.333333  0.083333     16.000000
  0.166667  0.333333  0.083333     16.000000
  0.250000  0.333333  0.083333     16.000000
  0.333333  0.333333  0.083333     16.000000
  0.416667  0.333333  0.083333     16.000000
  0.500000  0.333333  0.083333      8.000000
  0.000000  0.416667  0.083333      8.000000
  0.083333  0.416667  0.083333     16.000000
  0.166667  0.416667  0.083333     16.000000
  0.250000  0.416667  0.083333     16.000000
  0.333333  0.416667  0.083333     16.000000
  0.416667  0.416667  0.083333     16.000000
  0.500000  0.416667  0.083333      8.000000
  0.000000  0.500000  0.083333      4.000000
  0.083333  0.500000  0.083333      8.000000
  0.166667  0.500000  0.083333      8.000000
  0.250000  0.500000  0.083333      8.000000
  0.333333  0.500000  0.083333      8.000000
  0.416667  0.500000  0.083333      8.000000
  0.500000  0.500000  0.083333      4.000000
  0.000000  0.166667  0.166667      4.000000
  0.083333  0.166667  0.166667      8.000000
  0.166667  0.166667  0.166667      8.000000
  0.250000  0.166667  0.166667      8.000000
  0.333333  0.166667  0.166667      8.000000
  0.416667  0.166667  0.166667      8.000000
  0.500000  0.166667  0.166667      4.000000
  0.000000  0.250000  0.166667      8.000000
  0.083333  0.250000  0.166667     16.000000
  0.166667  0.250000  0.166667     16.000000
  0.250000  0.250000  0.166667     16.000000
  0.333333  0.250000  0.166667     16.000000
  0.416667  0.250000  0.166667     16.000000
  0.500000  0.250000  0.166667      8.000000
  0.000000  0.333333  0.166667      8.000000
  0.083333  0.333333  0.166667     16.000000
  0.166667  0.333333  0.166667     16.000000
  0.250000  0.333333  0.166667     16.000000
  0.333333  0.333333  0.166667     16.000000
  0.416667  0.333333  0.166667     16.000000
  0.500000  0.333333  0.166667      8.000000
  0.000000  0.416667  0.166667      8.000000
  0.083333  0.416667  0.166667     16.000000
  0.166667  0.416667  0.166667     16.000000
  0.250000  0.416667  0.166667     16.000000
  0.333333  0.416667  0.166667     16.000000
  0.416667  0.416667  0.166667     16.000000
  0.500000  0.416667  0.166667      8.000000
  0.000000  0.500000  0.166667      4.000000
  0.083333  0.500000  0.166667      8.000000
  0.166667  0.500000  0.166667      8.000000
  0.250000  0.500000  0.166667      8.000000
  0.333333  0.500000  0.166667      8.000000
  0.416667  0.500000  0.166667      8.000000
  0.500000  0.500000  0.166667      4.000000
  0.000000  0.250000  0.250000      4.000000
  0.083333  0.250000  0.250000      8.000000
  0.166667  0.250000  0.250000      8.000000
  0.250000  0.250000  0.250000      8.000000
  0.333333  0.250000  0.250000      8.000000
  0.416667  0.250000  0.250000      8.000000
  0.500000  0.250000  0.250000      4.000000
  0.000000  0.333333  0.250000      8.000000
  0.083333  0.333333  0.250000     16.000000
  0.166667  0.333333  0.250000     16.000000
  0.250000  0.333333  0.250000     16.000000
  0.333333  0.333333  0.250000     16.000000
  0.416667  0.333333  0.250000     16.000000
  0.500000  0.333333  0.250000      8.000000
  0.000000  0.416667  0.250000      8.000000
  0.083333  0.416667  0.250000     16.000000
  0.166667  0.416667  0.250000     16.000000
  0.250000  0.416667  0.250000     16.000000
  0.333333  0.416667  0.250000     16.000000
  0.416667  0.416667  0.250000     16.000000
  0.500000  0.416667  0.250000      8.000000
  0.000000  0.500000  0.250000      4.000000
  0.083333  0.500000  0.250000      8.000000
  0.166667  0.500000  0.250000      8.000000
  0.250000  0.500000  0.250000      8.000000
  0.333333  0.500000  0.250000      8.000000
  0.416667  0.500000  0.250000      8.000000
  0.500000  0.500000  0.250000      4.000000
  0.000000  0.333333  0.333333      4.000000
  0.083333  0.333333  0.333333      8.000000
  0.166667  0.333333  0.333333      8.000000
  0.250000  0.333333  0.333333      8.000000
  0.333333  0.333333  0.333333      8.000000
  0.416667  0.333333  0.333333      8.000000
  0.500000  0.333333  0.333333      4.000000
  0.000000  0.416667  0.333333      8.000000
  0.083333  0.416667  0.333333     16.000000
  0.166667  0.416667  0.333333     16.000000
  0.250000  0.416667  0.333333     16.000000
  0.333333  0.416667  0.333333     16.000000
  0.416667  0.416667  0.333333     16.000000
  0.500000  0.416667  0.333333      8.000000
  0.000000  0.500000  0.333333      4.000000
  0.083333  0.500000  0.333333      8.000000
  0.166667  0.500000  0.333333      8.000000
  0.250000  0.500000  0.333333      8.000000
  0.333333  0.500000  0.333333      8.000000
  0.416667  0.500000  0.333333      8.000000
  0.500000  0.500000  0.333333      4.000000
  0.000000  0.416667  0.416667      4.000000
  0.083333  0.416667  0.416667      8.000000
  0.166667  0.416667  0.416667      8.000000
  0.250000  0.416667  0.416667      8.000000
  0.333333  0.416667  0.416667      8.000000
  0.416667  0.416667  0.416667      8.000000
  0.500000  0.416667  0.416667      4.000000
  0.000000  0.500000  0.416667      4.000000
  0.083333  0.500000  0.416667      8.000000
  0.166667  0.500000  0.416667      8.000000
  0.250000  0.500000  0.416667      8.000000
  0.333333  0.500000  0.416667      8.000000
  0.416667  0.500000  0.416667      8.000000
  0.500000  0.500000  0.416667      4.000000
  0.000000  0.500000  0.500000      1.000000
  0.083333  0.500000  0.500000      2.000000
  0.166667  0.500000  0.500000      2.000000
  0.250000  0.500000  0.500000      2.000000
  0.333333  0.500000  0.500000      2.000000
  0.416667  0.500000  0.500000      2.000000
  0.500000  0.500000  0.500000      1.000000
 
 Following cartesian coordinates:
            Coordinates               Weight
  0.000000  0.000000  0.000000      1.000000
  0.011233  0.000000  0.000000      2.000000
  0.022467  0.000000  0.000000      2.000000
  0.033700  0.000000  0.000000      2.000000
  0.044934  0.000000  0.000000      2.000000
  0.056167  0.000000  0.000000      2.000000
  0.067401  0.000000  0.000000      1.000000
  0.000000  0.011233  0.000000      4.000000
  0.011233  0.011233  0.000000      8.000000
  0.022467  0.011233  0.000000      8.000000
  0.033700  0.011233  0.000000      8.000000
  0.044934  0.011233  0.000000      8.000000
  0.056167  0.011233  0.000000      8.000000
  0.067401  0.011233  0.000000      4.000000
  0.000000  0.022467  0.000000      4.000000
  0.011233  0.022467  0.000000      8.000000
  0.022467  0.022467  0.000000      8.000000
  0.033700  0.022467  0.000000      8.000000
  0.044934  0.022467  0.000000      8.000000
  0.056167  0.022467  0.000000      8.000000
  0.067401  0.022467  0.000000      4.000000
  0.000000  0.033700  0.000000      4.000000
  0.011233  0.033700  0.000000      8.000000
  0.022467  0.033700  0.000000      8.000000
  0.033700  0.033700  0.000000      8.000000
  0.044934  0.033700  0.000000      8.000000
  0.056167  0.033700  0.000000      8.000000
  0.067401  0.033700  0.000000      4.000000
  0.000000  0.044934  0.000000      4.000000
  0.011233  0.044934  0.000000      8.000000
  0.022467  0.044934  0.000000      8.000000
  0.033700  0.044934  0.000000      8.000000
  0.044934  0.044934  0.000000      8.000000
  0.056167  0.044934  0.000000      8.000000
  0.067401  0.044934  0.000000      4.000000
  0.000000  0.056167  0.000000      4.000000
  0.011233  0.056167  0.000000      8.000000
  0.022467  0.056167  0.000000      8.000000
  0.033700  0.056167  0.000000      8.000000
  0.044934  0.056167  0.000000      8.000000
  0.056167  0.056167  0.000000      8.000000
  0.067401  0.056167  0.000000      4.000000
  0.000000  0.067401  0.000000      2.000000
  0.011233  0.067401  0.000000      4.000000
  0.022467  0.067401  0.000000      4.000000
  0.033700  0.067401  0.000000      4.000000
  0.044934  0.067401  0.000000      4.000000
  0.056167  0.067401  0.000000      4.000000
  0.067401  0.067401  0.000000      2.000000
  0.000000  0.011233  0.011233      4.000000
  0.011233  0.011233  0.011233      8.000000
  0.022467  0.011233  0.011233      8.000000
  0.033700  0.011233  0.011233      8.000000
  0.044934  0.011233  0.011233      8.000000
  0.056167  0.011233  0.011233      8.000000
  0.067401  0.011233  0.011233      4.000000
  0.000000  0.022467  0.011233      8.000000
  0.011233  0.022467  0.011233     16.000000
  0.022467  0.022467  0.011233     16.000000
  0.033700  0.022467  0.011233     16.000000
  0.044934  0.022467  0.011233     16.000000
  0.056167  0.022467  0.011233     16.000000
  0.067401  0.022467  0.011233      8.000000
  0.000000  0.033700  0.011233      8.000000
  0.011233  0.033700  0.011233     16.000000
  0.022467  0.033700  0.011233     16.000000
  0.033700  0.033700  0.011233     16.000000
  0.044934  0.033700  0.011233     16.000000
  0.056167  0.033700  0.011233     16.000000
  0.067401  0.033700  0.011233      8.000000
  0.000000  0.044934  0.011233      8.000000
  0.011233  0.044934  0.011233     16.000000
  0.022467  0.044934  0.011233     16.000000
  0.033700  0.044934  0.011233     16.000000
  0.044934  0.044934  0.011233     16.000000
  0.056167  0.044934  0.011233     16.000000
  0.067401  0.044934  0.011233      8.000000
  0.000000  0.056167  0.011233      8.000000
  0.011233  0.056167  0.011233     16.000000
  0.022467  0.056167  0.011233     16.000000
  0.033700  0.056167  0.011233     16.000000
  0.044934  0.056167  0.011233     16.000000
  0.056167  0.056167  0.011233     16.000000
  0.067401  0.056167  0.011233      8.000000
  0.000000  0.067401  0.011233      4.000000
  0.011233  0.067401  0.011233      8.000000
  0.022467  0.067401  0.011233      8.000000
  0.033700  0.067401  0.011233      8.000000
  0.044934  0.067401  0.011233      8.000000
  0.056167  0.067401  0.011233      8.000000
  0.067401  0.067401  0.011233      4.000000
  0.000000  0.022467  0.022467      4.000000
  0.011233  0.022467  0.022467      8.000000
  0.022467  0.022467  0.022467      8.000000
  0.033700  0.022467  0.022467      8.000000
  0.044934  0.022467  0.022467      8.000000
  0.056167  0.022467  0.022467      8.000000
  0.067401  0.022467  0.022467      4.000000
  0.000000  0.033700  0.022467      8.000000
  0.011233  0.033700  0.022467     16.000000
  0.022467  0.033700  0.022467     16.000000
  0.033700  0.033700  0.022467     16.000000
  0.044934  0.033700  0.022467     16.000000
  0.056167  0.033700  0.022467     16.000000
  0.067401  0.033700  0.022467      8.000000
  0.000000  0.044934  0.022467      8.000000
  0.011233  0.044934  0.022467     16.000000
  0.022467  0.044934  0.022467     16.000000
  0.033700  0.044934  0.022467     16.000000
  0.044934  0.044934  0.022467     16.000000
  0.056167  0.044934  0.022467     16.000000
  0.067401  0.044934  0.022467      8.000000
  0.000000  0.056167  0.022467      8.000000
  0.011233  0.056167  0.022467     16.000000
  0.022467  0.056167  0.022467     16.000000
  0.033700  0.056167  0.022467     16.000000
  0.044934  0.056167  0.022467     16.000000
  0.056167  0.056167  0.022467     16.000000
  0.067401  0.056167  0.022467      8.000000
  0.000000  0.067401  0.022467      4.000000
  0.011233  0.067401  0.022467      8.000000
  0.022467  0.067401  0.022467      8.000000
  0.033700  0.067401  0.022467      8.000000
  0.044934  0.067401  0.022467      8.000000
  0.056167  0.067401  0.022467      8.000000
  0.067401  0.067401  0.022467      4.000000
  0.000000  0.033700  0.033700      4.000000
  0.011233  0.033700  0.033700      8.000000
  0.022467  0.033700  0.033700      8.000000
  0.033700  0.033700  0.033700      8.000000
  0.044934  0.033700  0.033700      8.000000
  0.056167  0.033700  0.033700      8.000000
  0.067401  0.033700  0.033700      4.000000
  0.000000  0.044934  0.033700      8.000000
  0.011233  0.044934  0.033700     16.000000
  0.022467  0.044934  0.033700     16.000000
  0.033700  0.044934  0.033700     16.000000
  0.044934  0.044934  0.033700     16.000000
  0.056167  0.044934  0.033700     16.000000
  0.067401  0.044934  0.033700      8.000000
  0.000000  0.056167  0.033700      8.000000
  0.011233  0.056167  0.033700     16.000000
  0.022467  0.056167  0.033700     16.000000
  0.033700  0.056167  0.033700     16.000000
  0.044934  0.056167  0.033700     16.000000
  0.056167  0.056167  0.033700     16.000000
  0.067401  0.056167  0.033700      8.000000
  0.000000  0.067401  0.033700      4.000000
  0.011233  0.067401  0.033700      8.000000
  0.022467  0.067401  0.033700      8.000000
  0.033700  0.067401  0.033700      8.000000
  0.044934  0.067401  0.033700      8.000000
  0.056167  0.067401  0.033700      8.000000
  0.067401  0.067401  0.033700      4.000000
  0.000000  0.044934  0.044934      4.000000
  0.011233  0.044934  0.044934      8.000000
  0.022467  0.044934  0.044934      8.000000
  0.033700  0.044934  0.044934      8.000000
  0.044934  0.044934  0.044934      8.000000
  0.056167  0.044934  0.044934      8.000000
  0.067401  0.044934  0.044934      4.000000
  0.000000  0.056167  0.044934      8.000000
  0.011233  0.056167  0.044934     16.000000
  0.022467  0.056167  0.044934     16.000000
  0.033700  0.056167  0.044934     16.000000
  0.044934  0.056167  0.044934     16.000000
  0.056167  0.056167  0.044934     16.000000
  0.067401  0.056167  0.044934      8.000000
  0.000000  0.067401  0.044934      4.000000
  0.011233  0.067401  0.044934      8.000000
  0.022467  0.067401  0.044934      8.000000
  0.033700  0.067401  0.044934      8.000000
  0.044934  0.067401  0.044934      8.000000
  0.056167  0.067401  0.044934      8.000000
  0.067401  0.067401  0.044934      4.000000
  0.000000  0.056167  0.056167      4.000000
  0.011233  0.056167  0.056167      8.000000
  0.022467  0.056167  0.056167      8.000000
  0.033700  0.056167  0.056167      8.000000
  0.044934  0.056167  0.056167      8.000000
  0.056167  0.056167  0.056167      8.000000
  0.067401  0.056167  0.056167      4.000000
  0.000000  0.067401  0.056167      4.000000
  0.011233  0.067401  0.056167      8.000000
  0.022467  0.067401  0.056167      8.000000
  0.033700  0.067401  0.056167      8.000000
  0.044934  0.067401  0.056167      8.000000
  0.056167  0.067401  0.056167      8.000000
  0.067401  0.067401  0.056167      4.000000
  0.000000  0.067401  0.067401      1.000000
  0.011233  0.067401  0.067401      2.000000
  0.022467  0.067401  0.067401      2.000000
  0.033700  0.067401  0.067401      2.000000
  0.044934  0.067401  0.067401      2.000000
  0.056167  0.067401  0.067401      2.000000
  0.067401  0.067401  0.067401      1.000000
 


--------------------------------------------------------------------------------------------------------




 Dimension of arrays:
   k-Points           NKPTS =    196   number of bands    NBANDS=    216
   number of dos      NEDOS =    301   number of ions     NIONS =     32
   non local maximal  LDIM  =      6   non local SUM 2l+1 LMDIM =     18
   total plane-waves  NPLWV = 343000
   max r-space proj   IRMAX =      1   max aug-charges    IRDMAX= 236079
   dimension x,y,z NGX =    70 NGY =   70 NGZ =   70
   dimension x,y,z NGXF=   140 NGYF=  140 NGZF=  140
   support grid    NGXF=   280 NGYF=  280 NGZF=  280
   ions per type =              32
 NGX,Y,Z   is equivalent  to a cutoff of  15.69, 15.69, 15.69 a.u.
 NGXF,Y,Z  is equivalent  to a cutoff of  31.37, 31.37, 31.37 a.u.


 I would recommend the setting:
   dimension x,y,z NGX =    66 NGY =   66 NGZ =   66
 SYSTEM =  unknown system                          
 POSCAR =  Cu                                      

 Startparameter for this run:
   NWRITE =      2    write-flag & timer
   PREC   = accura    medium, high low
   ISTART =      0    job   : 0-new  1-cont  2-samecut
   ICHARG =      2    charge: 1-file 2-atom 10-const
   ISPIN  =      1    spin polarized calculation?
   LNONCOLLINEAR =      F non collinear calculations
   LSORBIT =      F    spin-orbit coupling
   INIWAV =      1    electr: 0-lowe 1-rand  2-diag
   LASPH  =      F    aspherical Exc in radial PAW
   METAGGA=      F    non-selfconsistent MetaGGA calc.

 Electronic Relaxation 1
   ENCUT  =  750.0 eV  55.12 Ry    7.42 a.u.  16.56 16.56 16.56*2*pi/ulx,y,z
   ENINI  =  750.0     initial cutoff
   ENAUG  =  516.5 eV  augmentation charge cutoff
   NELM   =     60;   NELMIN=  2; NELMDL=  0     # of ELM steps 
   EDIFF  = 0.1E-07   stopping-criterion for ELM
   LREAL  =      F    real-space projection
   LCOMPAT=      F    compatible to vasp.4.4
   LREAL_COMPAT= F    compatible to vasp.4.5.1-3
   GGA_COMPAT  = T    GGA compatible to vasp.4.4-vasp.4.6
   LMAXPAW     = -100 max onsite density
   LMAXMIX     =    2 max onsite mixed and CHGCAR
   VOSKOWN=      0    Vosko Wilk Nusair interpolation
   ROPT   =    0.00000
 Ionic relaxation
   EDIFFG = 0.1E-06   stopping-criterion for IOM
   NSW    =      0    number of steps for IOM
   NBLOCK =      1;   KBLOCK =      1    inner block; outer block 
   IBRION =     -1    ionic relax: 0-MD 1-quasi-New 2-CG
   NFREE  =      0    steps in history (QN), initial steepest desc. (CG)
   ISIF   =      2    stress and relaxation
   IWAVPR =     10    prediction:  0-non 1-charg 2-wave 3-comb
   ISYM   =      2    0-nonsym 1-usesym 2-fastsym
   LCORR  =      T    Harris-Foulkes like correction to forces

   POTIM  =   0.50    time-step for ionic-motion
   TEIN   =    0.0    initial temperature
   TEBEG  =    0.0;   TEEND  =   0.0 temperature during run
   SMASS  =  -3.00    Nose mass-parameter (am)
   estimated Nose-frequenzy (Omega)   =  0.10E-29 period in steps =****** mass=  -0.126E-26a.u.
   NPACO  =    256;   APACO  = 16.0  distance and # of slots for P.C.
   PSTRESS=    0.0 pullay stress

  Mass of Ions in am
   POMASS =  63.55
  Ionic Valenz
   ZVAL   =  11.00
  Atomic Wigner-Seitz radii
   RWIGS  =  -1.00
   NELECT =     352.0000    total number of electrons
   NUPDOWN=      -1.0000    fix difference up-down

 DOS related values:
   EMIN   =  10.00;   EMAX   =-10.00  energy-range for DOS
   ISMEAR =     0;   SIGMA  =   0.01  broadening in eV -4-tet -1-fermi 0-gaus

 Electronic relaxation 2 (details)
   IALGO  =     38    algorithm
   LDIAG  =      T    sub-space diagonalisation
   IMIX   =      4    mixing-type and parameters
     AMIX     =   0.40;   BMIX     =  1.00
     AMIX_MAG =   1.60;   BMIX_MAG =  1.00
     AMIN     =   0.10
     WC   =   100.;   INIMIX=   1;  MIXPRE=   1

 Intra band minimization:
   WEIMIN = 0.0000     energy-eigenvalue tresh-hold
   EBREAK =  0.12E-10  absolut break condition
   DEPER  =   0.30     relativ break condition  

   TIME   =   0.10     timestep for ELM

  volume/ion in A,a.u.               =      12.76        86.09
  Fermi-wavevector in a.u.,eV,Ry     =   1.558184 33.034084  2.427937

 Second variation
   LSECVAR=     F    do a second variation
 
 Write flags
   LWAVE  =      F    write WAVECAR
   LCHARG =      F    write CHGCAR
   LVTOT  =      F    write LOCPOT, local potential
   LELF   =      F    write electronic localiz. function (ELF)
   LORBIT =      0    0 simple, 1 ext, 2 COOP (PROOUT)


 Dipole corrections
   IDIPOL =      0    1-x, 2-y, 3-z
   LDIPOL =      F    correct potential



--------------------------------------------------------------------------------------------------------


 Static calculation
 charge density will be updated during run
 non-spin polarized calculation
 Variant of blocked Davidson
 Davidson routine will perform the subspace rotation
 performe sub-space diagonalisation
    after iterative eigenvector-optimisation
 modified Broyden-mixing scheme, WC =      100.0
 initial mixing is a Kerker type mixing with AMIX =  0.4000 and BMIX =      1.0000
 Hartree-type preconditioning will be used
 using additional bands           40
 reciprocal scheme for non local part
 use partial core corrections
 calculate Harris-corrections to forces 
   (improved forces if not selfconsistent)
 use gradient corrections 
 use of overlap-Matrix (Vanderbilt PP)
 Gauss-broadening in eV      SIGMA  =   0.01


--------------------------------------------------------------------------------------------------------


  energy-cutoff  :      750.00
  volume of cell :      408.24
      direct lattice vectors                 reciprocal lattice vectors
     7.418288256  0.000000000  0.000000000     0.134801987  0.000000000  0.000000000
     0.000000000  7.418288256  0.000000000     0.000000000  0.134801987  0.000000000
     0.000000000  0.000000000  7.418288256     0.000000000  0.000000000  0.134801987

  length of vectors
     7.418288256  7.418288256  7.418288256     0.134801987  0.134801987  0.134801987


 
 k-points in units of 2pi/SCALE and weight: Automatic mesh                          
   0.00000000  0.00000000  0.00000000       0.001
   0.01123350  0.00000000  0.00000000       0.001
   0.02246700  0.00000000  0.00000000       0.001
   0.03370050  0.00000000  0.00000000       0.001
   0.04493400  0.00000000  0.00000000       0.001
   0.05616749  0.00000000  0.00000000       0.001
   0.06740099  0.00000000  0.00000000       0.001
   0.00000000  0.01123350  0.00000000       0.002
   0.01123350  0.01123350  0.00000000       0.005
   0.02246700  0.01123350  0.00000000       0.005
   0.03370050  0.01123350  0.00000000       0.005
   0.04493400  0.01123350  0.00000000       0.005
   0.05616749  0.01123350  0.00000000       0.005
   0.06740099  0.01123350  0.00000000       0.002
   0.00000000  0.02246700  0.00000000       0.002
   0.01123350  0.02246700  0.00000000       0.005
   0.02246700  0.02246700  0.00000000       0.005
   0.03370050  0.02246700  0.00000000       0.005
   0.04493400  0.02246700  0.00000000       0.005
   0.05616749  0.02246700  0.00000000       0.005
   0.06740099  0.02246700  0.00000000       0.002
   0.00000000  0.03370050  0.00000000       0.002
   0.01123350  0.03370050  0.00000000       0.005
   0.02246700  0.03370050  0.00000000       0.005
   0.03370050  0.03370050  0.00000000       0.005
   0.04493400  0.03370050  0.00000000       0.005
   0.05616749  0.03370050  0.00000000       0.005
   0.06740099  0.03370050  0.00000000       0.002
   0.00000000  0.04493400  0.00000000       0.002
   0.01123350  0.04493400  0.00000000       0.005
   0.02246700  0.04493400  0.00000000       0.005
   0.03370050  0.04493400  0.00000000       0.005
   0.04493400  0.04493400  0.00000000       0.005
   0.05616749  0.04493400  0.00000000       0.005
   0.06740099  0.04493400  0.00000000       0.002
   0.00000000  0.05616749  0.00000000       0.002
   0.01123350  0.05616749  0.00000000       0.005
   0.02246700  0.05616749  0.00000000       0.005
   0.03370050  0.05616749  0.00000000       0.005
   0.04493400  0.05616749  0.00000000       0.005
   0.05616749  0.05616749  0.00000000       0.005
   0.06740099  0.05616749  0.00000000       0.002
   0.00000000  0.06740099  0.00000000       0.001
   0.01123350  0.06740099  0.00000000       0.002
   0.02246700  0.06740099  0.00000000       0.002
   0.03370050  0.06740099  0.00000000       0.002
   0.04493400  0.06740099  0.00000000       0.002
   0.05616749  0.06740099  0.00000000       0.002
   0.06740099  0.06740099  0.00000000       0.001
   0.00000000  0.01123350  0.01123350       0.002
   0.01123350  0.01123350  0.01123350       0.005
   0.02246700  0.01123350  0.01123350       0.005
   0.03370050  0.01123350  0.01123350       0.005
   0.04493400  0.01123350  0.01123350       0.005
   0.05616749  0.01123350  0.01123350       0.005
   0.06740099  0.01123350  0.01123350       0.002
   0.00000000  0.02246700  0.01123350       0.005
   0.01123350  0.02246700  0.01123350       0.009
   0.02246700  0.02246700  0.01123350       0.009
   0.03370050  0.02246700  0.01123350       0.009
   0.04493400  0.02246700  0.01123350       0.009
   0.05616749  0.02246700  0.01123350       0.009
   0.06740099  0.02246700  0.01123350       0.005
   0.00000000  0.03370050  0.01123350       0.005
   0.01123350  0.03370050  0.01123350       0.009
   0.02246700  0.03370050  0.01123350       0.009
   0.03370050  0.03370050  0.01123350       0.009
   0.04493400  0.03370050  0.01123350       0.009
   0.05616749  0.03370050  0.01123350       0.009
   0.06740099  0.03370050  0.01123350       0.005
   0.00000000  0.04493400  0.01123350       0.005
   0.01123350  0.04493400  0.01123350       0.009
   0.02246700  0.04493400  0.01123350       0.009
   0.03370050  0.04493400  0.01123350       0.009
   0.04493400  0.04493400  0.01123350       0.009
   0.05616749  0.04493400  0.01123350       0.009
   0.06740099  0.04493400  0.01123350       0.005
   0.00000000  0.05616749  0.01123350       0.005
   0.01123350  0.05616749  0.01123350       0.009
   0.02246700  0.05616749  0.01123350       0.009
   0.03370050  0.05616749  0.01123350       0.009
   0.04493400  0.05616749  0.01123350       0.009
   0.05616749  0.05616749  0.01123350       0.009
   0.06740099  0.05616749  0.01123350       0.005
   0.00000000  0.06740099  0.01123350       0.002
   0.01123350  0.06740099  0.01123350       0.005
   0.02246700  0.06740099  0.01123350       0.005
   0.03370050  0.06740099  0.01123350       0.005
   0.04493400  0.06740099  0.01123350       0.005
   0.05616749  0.06740099  0.01123350       0.005
   0.06740099  0.06740099  0.01123350       0.002
   0.00000000  0.02246700  0.02246700       0.002
   0.01123350  0.02246700  0.02246700       0.005
   0.02246700  0.02246700  0.02246700       0.005
   0.03370050  0.02246700  0.02246700       0.005
   0.04493400  0.02246700  0.02246700       0.005
   0.05616749  0.02246700  0.02246700       0.005
   0.06740099  0.02246700  0.02246700       0.002
   0.00000000  0.03370050  0.02246700       0.005
   0.01123350  0.03370050  0.02246700       0.009
   0.02246700  0.03370050  0.02246700       0.009
   0.03370050  0.03370050  0.02246700       0.009
   0.04493400  0.03370050  0.02246700       0.009
   0.05616749  0.03370050  0.02246700       0.009
   0.06740099  0.03370050  0.02246700       0.005
   0.00000000  0.04493400  0.02246700       0.005
   0.01123350  0.04493400  0.02246700       0.009
   0.02246700  0.04493400  0.02246700       0.009
   0.03370050  0.04493400  0.02246700       0.009
   0.04493400  0.04493400  0.02246700       0.009
   0.05616749  0.04493400  0.02246700       0.009
   0.06740099  0.04493400  0.02246700       0.005
   0.00000000  0.05616749  0.02246700       0.005
   0.01123350  0.05616749  0.02246700       0.009
   0.02246700  0.05616749  0.02246700       0.009
   0.03370050  0.05616749  0.02246700       0.009
   0.04493400  0.05616749  0.02246700       0.009
   0.05616749  0.05616749  0.02246700       0.009
   0.06740099  0.05616749  0.02246700       0.005
   0.00000000  0.06740099  0.02246700       0.002
   0.01123350  0.06740099  0.02246700       0.005
   0.02246700  0.06740099  0.02246700       0.005
   0.03370050  0.06740099  0.02246700       0.005
   0.04493400  0.06740099  0.02246700       0.005
   0.05616749  0.06740099  0.02246700       0.005
   0.06740099  0.06740099  0.02246700       0.002
   0.00000000  0.03370050  0.03370050       0.002
   0.01123350  0.03370050  0.03370050       0.005
   0.02246700  0.03370050  0.03370050       0.005
   0.03370050  0.03370050  0.03370050       0.005
   0.04493400  0.03370050  0.03370050       0.005
   0.05616749  0.03370050  0.03370050       0.005
   0.06740099  0.03370050  0.03370050       0.002
   0.00000000  0.04493400  0.03370050       0.005
   0.01123350  0.04493400  0.03370050       0.009
   0.02246700  0.04493400  0.03370050       0.009
   0.03370050  0.04493400  0.03370050       0.009
   0.04493400  0.04493400  0.03370050       0.009
   0.05616749  0.04493400  0.03370050       0.009
   0.06740099  0.04493400  0.03370050       0.005
   0.00000000  0.05616749  0.03370050       0.005
   0.01123350  0.05616749  0.03370050       0.009
   0.02246700  0.05616749  0.03370050       0.009
   0.03370050  0.05616749  0.03370050       0.009
   0.04493400  0.05616749  0.03370050       0.009
   0.05616749  0.05616749  0.03370050       0.009
   0.06740099  0.05616749  0.03370050       0.005
   0.00000000  0.06740099  0.03370050       0.002
   0.01123350  0.06740099  0.03370050       0.005
   0.02246700  0.06740099  0.03370050       0.005
   0.03370050  0.06740099  0.03370050       0.005
   0.04493400  0.06740099  0.03370050       0.005
   0.05616749  0.06740099  0.03370050       0.005
   0.06740099  0.06740099  0.03370050       0.002
   0.00000000  0.04493400  0.04493400       0.002
   0.01123350  0.04493400  0.04493400       0.005
   0.02246700  0.04493400  0.04493400       0.005
   0.03370050  0.04493400  0.04493400       0.005
   0.04493400  0.04493400  0.04493400       0.005
   0.05616749  0.04493400  0.04493400       0.005
   0.06740099  0.04493400  0.04493400       0.002
   0.00000000  0.05616749  0.04493400       0.005
   0.01123350  0.05616749  0.04493400       0.009
   0.02246700  0.05616749  0.04493400       0.009
   0.03370050  0.05616749  0.04493400       0.009
   0.04493400  0.05616749  0.04493400       0.009
   0.05616749  0.05616749  0.04493400       0.009
   0.06740099  0.05616749  0.04493400       0.005
   0.00000000  0.06740099  0.04493400       0.002
   0.01123350  0.06740099  0.04493400       0.005
   0.02246700  0.06740099  0.04493400       0.005
   0.03370050  0.06740099  0.04493400       0.005
   0.04493400  0.06740099  0.04493400       0.005
   0.05616749  0.06740099  0.04493400       0.005
   0.06740099  0.06740099  0.04493400       0.002
   0.00000000  0.05616749  0.05616749       0.002
   0.01123350  0.05616749  0.05616749       0.005
   0.02246700  0.05616749  0.05616749       0.005
   0.03370050  0.05616749  0.05616749       0.005
   0.04493400  0.05616749  0.05616749       0.005
   0.05616749  0.05616749  0.05616749       0.005
   0.06740099  0.05616749  0.05616749       0.002
   0.00000000  0.06740099  0.05616749       0.002
   0.01123350  0.06740099  0.05616749       0.005
   0.02246700  0.06740099  0.05616749       0.005
   0.03370050  0.06740099  0.05616749       0.005
   0.04493400  0.06740099  0.05616749       0.005
   0.05616749  0.06740099  0.05616749       0.005
   0.06740099  0.06740099  0.05616749       0.002
   0.00000000  0.06740099  0.06740099       0.001
   0.01123350  0.06740099  0.06740099       0.001
   0.02246700  0.06740099  0.06740099       0.001
   0.03370050  0.06740099  0.06740099       0.001
   0.04493400  0.06740099  0.06740099       0.001
   0.05616749  0.06740099  0.06740099       0.001
   0.06740099  0.06740099  0.06740099       0.001
 
 k-points in reciprocal lattice and weights: Automatic mesh                          
   0.00000000  0.00000000  0.00000000       0.001
   0.08333333  0.00000000  0.00000000       0.001
   0.16666667  0.00000000  0.00000000       0.001
   0.25000000  0.00000000  0.00000000       0.001
   0.33333333  0.00000000  0.00000000       0.001
   0.41666667  0.00000000  0.00000000       0.001
   0.50000000  0.00000000  0.00000000       0.001
   0.00000000  0.08333333  0.00000000       0.002
   0.08333333  0.08333333  0.00000000       0.005
   0.16666667  0.08333333  0.00000000       0.005
   0.25000000  0.08333333  0.00000000       0.005
   0.33333333  0.08333333  0.00000000       0.005
   0.41666667  0.08333333  0.00000000       0.005
   0.50000000  0.08333333  0.00000000       0.002
   0.00000000  0.16666667  0.00000000       0.002
   0.08333333  0.16666667  0.00000000       0.005
   0.16666667  0.16666667  0.00000000       0.005
   0.25000000  0.16666667  0.00000000       0.005
   0.33333333  0.16666667  0.00000000       0.005
   0.41666667  0.16666667  0.00000000       0.005
   0.50000000  0.16666667  0.00000000       0.002
   0.00000000  0.25000000  0.00000000       0.002
   0.08333333  0.25000000  0.00000000       0.005
   0.16666667  0.25000000  0.00000000       0.005
   0.25000000  0.25000000  0.00000000       0.005
   0.33333333  0.25000000  0.00000000       0.005
   0.41666667  0.25000000  0.00000000       0.005
   0.50000000  0.25000000  0.00000000       0.002
   0.00000000  0.33333333  0.00000000       0.002
   0.08333333  0.33333333  0.00000000       0.005
   0.16666667  0.33333333  0.00000000       0.005
   0.25000000  0.33333333  0.00000000       0.005
   0.33333333  0.33333333  0.00000000       0.005
   0.41666667  0.33333333  0.00000000       0.005
   0.50000000  0.33333333  0.00000000       0.002
   0.00000000  0.41666667  0.00000000       0.002
   0.08333333  0.41666667  0.00000000       0.005
   0.16666667  0.41666667  0.00000000       0.005
   0.25000000  0.41666667  0.00000000       0.005
   0.33333333  0.41666667  0.00000000       0.005
   0.41666667  0.41666667  0.00000000       0.005
   0.50000000  0.41666667  0.00000000       0.002
   0.00000000  0.50000000  0.00000000       0.001
   0.08333333  0.50000000  0.00000000       0.002
   0.16666667  0.50000000  0.00000000       0.002
   0.25000000  0.50000000  0.00000000       0.002
   0.33333333  0.50000000  0.00000000       0.002
   0.41666667  0.50000000  0.00000000       0.002
   0.50000000  0.50000000  0.00000000       0.001
   0.00000000  0.08333333  0.08333333       0.002
   0.08333333  0.08333333  0.08333333       0.005
   0.16666667  0.08333333  0.08333333       0.005
   0.25000000  0.08333333  0.08333333       0.005
   0.33333333  0.08333333  0.08333333       0.005
   0.41666667  0.08333333  0.08333333       0.005
   0.50000000  0.08333333  0.08333333       0.002
   0.00000000  0.16666667  0.08333333       0.005
   0.08333333  0.16666667  0.08333333       0.009
   0.16666667  0.16666667  0.08333333       0.009
   0.25000000  0.16666667  0.08333333       0.009
   0.33333333  0.16666667  0.08333333       0.009
   0.41666667  0.16666667  0.08333333       0.009
   0.50000000  0.16666667  0.08333333       0.005
   0.00000000  0.25000000  0.08333333       0.005
   0.08333333  0.25000000  0.08333333       0.009
   0.16666667  0.25000000  0.08333333       0.009
   0.25000000  0.25000000  0.08333333       0.009
   0.33333333  0.25000000  0.08333333       0.009
   0.41666667  0.25000000  0.08333333       0.009
   0.50000000  0.25000000  0.08333333       0.005
   0.00000000  0.33333333  0.08333333       0.005
   0.08333333  0.33333333  0.08333333       0.009
   0.16666667  0.33333333  0.08333333       0.009
   0.25000000  0.33333333  0.08333333       0.009
   0.33333333  0.33333333  0.08333333       0.009
   0.41666667  0.33333333  0.08333333       0.009
   0.50000000  0.33333333  0.08333333       0.005
   0.00000000  0.41666667  0.08333333       0.005
   0.08333333  0.41666667  0.08333333       0.009
   0.16666667  0.41666667  0.08333333       0.009
   0.25000000  0.41666667  0.08333333       0.009
   0.33333333  0.41666667  0.08333333       0.009
   0.41666667  0.41666667  0.08333333       0.009
   0.50000000  0.41666667  0.08333333       0.005
   0.00000000  0.50000000  0.08333333       0.002
   0.08333333  0.50000000  0.08333333       0.005
   0.16666667  0.50000000  0.08333333       0.005
   0.25000000  0.50000000  0.08333333       0.005
   0.33333333  0.50000000  0.08333333       0.005
   0.41666667  0.50000000  0.08333333       0.005
   0.50000000  0.50000000  0.08333333       0.002
   0.00000000  0.16666667  0.16666667       0.002
   0.08333333  0.16666667  0.16666667       0.005
   0.16666667  0.16666667  0.16666667       0.005
   0.25000000  0.16666667  0.16666667       0.005
   0.33333333  0.16666667  0.16666667       0.005
   0.41666667  0.16666667  0.16666667       0.005
   0.50000000  0.16666667  0.16666667       0.002
   0.00000000  0.25000000  0.16666667       0.005
   0.08333333  0.25000000  0.16666667       0.009
   0.16666667  0.25000000  0.16666667       0.009
   0.25000000  0.25000000  0.16666667       0.009
   0.33333333  0.25000000  0.16666667       0.009
   0.41666667  0.25000000  0.16666667       0.009
   0.50000000  0.25000000  0.16666667       0.005
   0.00000000  0.33333333  0.16666667       0.005
   0.08333333  0.33333333  0.16666667       0.009
   0.16666667  0.33333333  0.16666667       0.009
   0.25000000  0.33333333  0.16666667       0.009
   0.33333333  0.33333333  0.16666667       0.009
   0.41666667  0.33333333  0.16666667       0.009
   0.50000000  0.33333333  0.16666667       0.005
   0.00000000  0.41666667  0.16666667       0.005
   0.08333333  0.41666667  0.16666667       0.009
   0.16666667  0.41666667  0.16666667       0.009
   0.25000000  0.41666667  0.16666667       0.009
   0.33333333  0.41666667  0.16666667       0.009
   0.41666667  0.41666667  0.16666667       0.009
   0.50000000  0.41666667  0.16666667       0.005
   0.00000000  0.50000000  0.16666667       0.002
   0.08333333  0.50000000  0.16666667       0.005
   0.16666667  0.50000000  0.16666667       0.005
   0.25000000  0.50000000  0.16666667       0.005
   0.33333333  0.50000000  0.16666667       0.005
   0.41666667  0.50000000  0.16666667       0.005
   0.50000000  0.50000000  0.16666667       0.002
   0.00000000  0.25000000  0.25000000       0.002
   0.08333333  0.25000000  0.25000000       0.005
   0.16666667  0.25000000  0.25000000       0.005
   0.25000000  0.25000000  0.25000000       0.005
   0.33333333  0.25000000  0.25000000       0.005
   0.41666667  0.25000000  0.25000000       0.005
   0.50000000  0.25000000  0.25000000       0.002
   0.00000000  0.33333333  0.25000000       0.005
   0.08333333  0.33333333  0.25000000       0.009
   0.16666667  0.33333333  0.25000000       0.009
   0.25000000  0.33333333  0.25000000       0.009
   0.33333333  0.33333333  0.25000000       0.009
   0.41666667  0.33333333  0.25000000       0.009
   0.50000000  0.33333333  0.25000000       0.005
   0.00000000  0.41666667  0.25000000       0.005
   0.08333333  0.41666667  0.25000000       0.009
   0.16666667  0.41666667  0.25000000       0.009
   0.25000000  0.41666667  0.25000000       0.009
   0.33333333  0.41666667  0.25000000       0.009
   0.41666667  0.41666667  0.25000000       0.009
   0.50000000  0.41666667  0.25000000       0.005
   0.00000000  0.50000000  0.25000000       0.002
   0.08333333  0.50000000  0.25000000       0.005
   0.16666667  0.50000000  0.25000000       0.005
   0.25000000  0.50000000  0.25000000       0.005
   0.33333333  0.50000000  0.25000000       0.005
   0.41666667  0.50000000  0.25000000       0.005
   0.50000000  0.50000000  0.25000000       0.002
   0.00000000  0.33333333  0.33333333       0.002
   0.08333333  0.33333333  0.33333333       0.005
   0.16666667  0.33333333  0.33333333       0.005
   0.25000000  0.33333333  0.33333333       0.005
   0.33333333  0.33333333  0.33333333       0.005
   0.41666667  0.33333333  0.33333333       0.005
   0.50000000  0.33333333  0.33333333       0.002
   0.00000000  0.41666667  0.33333333       0.005
   0.08333333  0.41666667  0.33333333       0.009
   0.16666667  0.41666667  0.33333333       0.009
   0.25000000  0.41666667  0.33333333       0.009
   0.33333333  0.41666667  0.33333333       0.009
   0.41666667  0.41666667  0.33333333       0.009
   0.50000000  0.41666667  0.33333333       0.005
   0.00000000  0.50000000  0.33333333       0.002
   0.08333333  0.50000000  0.33333333       0.005
   0.16666667  0.50000000  0.33333333       0.005
   0.25000000  0.50000000  0.33333333       0.005
   0.33333333  0.50000000  0.33333333       0.005
   0.41666667  0.50000000  0.33333333       0.005
   0.50000000  0.50000000  0.33333333       0.002
   0.00000000  0.41666667  0.41666667       0.002
   0.08333333  0.41666667  0.41666667       0.005
   0.16666667  0.41666667  0.41666667       0.005
   0.25000000  0.41666667  0.41666667       0.005
   0.33333333  0.41666667  0.41666667       0.005
   0.41666667  0.41666667  0.41666667       0.005
   0.50000000  0.41666667  0.41666667       0.002
   0.00000000  0.50000000  0.41666667       0.002
   0.08333333  0.50000000  0.41666667       0.005
   0.16666667  0.50000000  0.41666667       0.005
   0.25000000  0.50000000  0.41666667       0.005
   0.33333333  0.50000000  0.41666667       0.005
   0.41666667  0.50000000  0.41666667       0.005
   0.50000000  0.50000000  0.41666667       0.002
   0.00000000  0.50000000  0.50000000       0.001
   0.08333333  0.50000000  0.50000000       0.001
   0.16666667  0.50000000  0.50000000       0.001
   0.25000000  0.50000000  0.50000000       0.001
   0.33333333  0.50000000  0.50000000       0.001
   0.41666667  0.50000000  0.50000000       0.001
   0.50000000  0.50000000  0.50000000       0.001
 
 position of ions in fractional coordinates (direct lattice) 
   0.00134802  0.00000000  0.00000000
   0.50000000  0.00000000  0.00000000
   0.00000000  0.50000000  0.00000000
   0.50000000  0.50000000  0.00000000
   0.00000000  0.00000000  0.50000000
   0.50000000  0.00000000  0.50000000
   0.00000000  0.50000000  0.50000000
   0.50000000  0.50000000  0.50000000
   0.25000000  0.25000000  0.00000000
   0.75000000  0.25000000  0.00000000
   0.25000000  0.75000000  0.00000000
   0.75000000  0.75000000  0.00000000
   0.25000000  0.25000000  0.50000000
   0.75000000  0.25000000  0.50000000
   0.25000000  0.75000000  0.50000000
   0.75000000  0.75000000  0.50000000
   0.25000000  0.00000000  0.25000000
   0.75000000  0.00000000  0.25000000
   0.25000000  0.50000000  0.25000000
   0.75000000  0.50000000  0.25000000
   0.25000000  0.00000000  0.75000000
   0.75000000  0.00000000  0.75000000
   0.25000000  0.50000000  0.75000000
   0.75000000  0.50000000  0.75000000
   0.00000000  0.25000000  0.25000000
   0.50000000  0.25000000  0.25000000
   0.00000000  0.75000000  0.25000000
   0.50000000  0.75000000  0.25000000
   0.00000000  0.25000000  0.75000000
   0.50000000  0.25000000  0.75000000
   0.00000000  0.75000000  0.75000000
   0.50000000  0.75000000  0.75000000
 
 position of ions in cartesian coordinates  (Angst):
   0.01000000  0.00000000  0.00000000
   3.70914413  0.00000000  0.00000000
   0.00000000  3.70914413  0.00000000
   3.70914413  3.70914413  0.00000000
   0.00000000  0.00000000  3.70914413
   3.70914413  0.00000000  3.70914413
   0.00000000  3.70914413  3.70914413
   3.70914413  3.70914413  3.70914413
   1.85457206  1.85457206  0.00000000
   5.56371619  1.85457206  0.00000000
   1.85457206  5.56371619  0.00000000
   5.56371619  5.56371619  0.00000000
   1.85457206  1.85457206  3.70914413
   5.56371619  1.85457206  3.70914413
   1.85457206  5.56371619  3.70914413
   5.56371619  5.56371619  3.70914413
   1.85457206  0.00000000  1.85457206
   5.56371619  0.00000000  1.85457206
   1.85457206  3.70914413  1.85457206
   5.56371619  3.70914413  1.85457206
   1.85457206  0.00000000  5.56371619
   5.56371619  0.00000000  5.56371619
   1.85457206  3.70914413  5.56371619
   5.56371619  3.70914413  5.56371619
   0.00000000  1.85457206  1.85457206
   3.70914413  1.85457206  1.85457206
   0.00000000  5.56371619  1.85457206
   3.70914413  5.56371619  1.85457206
   0.00000000  1.85457206  5.56371619
   3.70914413  1.85457206  5.56371619
   0.00000000  5.56371619  5.56371619
   3.70914413  5.56371619  5.56371619
 


--------------------------------------------------------------------------------------------------------


 k-point  1 :  0.00000.00000.0000  plane waves:  19093
 k-point  2 :  0.08330.00000.0000  plane waves:  19065
 k-point  3 :  0.16670.00000.0000  plane waves:  19093
 k-point  4 :  0.25000.00000.0000  plane waves:  19081
 k-point  5 :  0.33330.00000.0000  plane waves:  19025
 k-point  6 :  0.41670.00000.0000  plane waves:  19037
 k-point  7 :  0.50000.00000.0000  plane waves:  19066
 k-point  8 :  0.00000.08330.0000  plane waves:  19065
 k-point  9 :  0.08330.08330.0000  plane waves:  19101
 k-point 10 :  0.16670.08330.0000  plane waves:  19074
 k-point 11 :  0.25000.08330.0000  plane waves:  19055
 k-point 12 :  0.33330.08330.0000  plane waves:  19031
 k-point 13 :  0.41670.08330.0000  plane waves:  19042
 k-point 14 :  0.50000.08330.0000  plane waves:  19028
 k-point 15 :  0.00000.16670.0000  plane waves:  19093
 k-point 16 :  0.08330.16670.0000  plane waves:  19074
 k-point 17 :  0.16670.16670.0000  plane waves:  19097
 k-point 18 :  0.25000.16670.0000  plane waves:  19066
 k-point 19 :  0.33330.16670.0000  plane waves:  19042
 k-point 20 :  0.41670.16670.0000  plane waves:  19048
 k-point 21 :  0.50000.16670.0000  plane waves:  19024
 k-point 22 :  0.00000.25000.0000  plane waves:  19081
 k-point 23 :  0.08330.25000.0000  plane waves:  19055
 k-point 24 :  0.16670.25000.0000  plane waves:  19066
 k-point 25 :  0.25000.25000.0000  plane waves:  19045
 k-point 26 :  0.33330.25000.0000  plane waves:  19058
 k-point 27 :  0.41670.25000.0000  plane waves:  19019
 k-point 28 :  0.50000.25000.0000  plane waves:  19042
 k-point 29 :  0.00000.33330.0000  plane waves:  19025
 k-point 30 :  0.08330.33330.0000  plane waves:  19031
 k-point 31 :  0.16670.33330.0000  plane waves:  19042
 k-point 32 :  0.25000.33330.0000  plane waves:  19058
 k-point 33 :  0.33330.33330.0000  plane waves:  19042
 k-point 34 :  0.41670.33330.0000  plane waves:  19038
 k-point 35 :  0.50000.33330.0000  plane waves:  19026
 k-point 36 :  0.00000.41670.0000  plane waves:  19037
 k-point 37 :  0.08330.41670.0000  plane waves:  19042
 k-point 38 :  0.16670.41670.0000  plane waves:  19048
 k-point 39 :  0.25000.41670.0000  plane waves:  19019
 k-point 40 :  0.33330.41670.0000  plane waves:  19038
 k-point 41 :  0.41670.41670.0000  plane waves:  19036
 k-point 42 :  0.50000.41670.0000  plane waves:  19016
 k-point 43 :  0.00000.50000.0000  plane waves:  19066
 k-point 44 :  0.08330.50000.0000  plane waves:  19028
 k-point 45 :  0.16670.50000.0000  plane waves:  19024
 k-point 46 :  0.25000.50000.0000  plane waves:  19042
 k-point 47 :  0.33330.50000.0000  plane waves:  19026
 k-point 48 :  0.41670.50000.0000  plane waves:  19016
 k-point 49 :  0.50000.50000.0000  plane waves:  18952
 k-point 50 :  0.00000.08330.0833  plane waves:  19101
 k-point 51 :  0.08330.08330.0833  plane waves:  19117
 k-point 52 :  0.16670.08330.0833  plane waves:  19066
 k-point 53 :  0.25000.08330.0833  plane waves:  19063
 k-point 54 :  0.33330.08330.0833  plane waves:  19028
 k-point 55 :  0.41670.08330.0833  plane waves:  19030
 k-point 56 :  0.50000.08330.0833  plane waves:  19018
 k-point 57 :  0.00000.16670.0833  plane waves:  19074
 k-point 58 :  0.08330.16670.0833  plane waves:  19066
 k-point 59 :  0.16670.16670.0833  plane waves:  19087
 k-point 60 :  0.25000.16670.0833  plane waves:  19057
 k-point 61 :  0.33330.16670.0833  plane waves:  19042
 k-point 62 :  0.41670.16670.0833  plane waves:  19034
 k-point 63 :  0.50000.16670.0833  plane waves:  19024
 k-point 64 :  0.00000.25000.0833  plane waves:  19055
 k-point 65 :  0.08330.25000.0833  plane waves:  19063
 k-point 66 :  0.16670.25000.0833  plane waves:  19057
 k-point 67 :  0.25000.25000.0833  plane waves:  19063
 k-point 68 :  0.33330.25000.0833  plane waves:  19065
 k-point 69 :  0.41670.25000.0833  plane waves:  19031
 k-point 70 :  0.50000.25000.0833  plane waves:  19030
 k-point 71 :  0.00000.33330.0833  plane waves:  19031
 k-point 72 :  0.08330.33330.0833  plane waves:  19028
 k-point 73 :  0.16670.33330.0833  plane waves:  19042
 k-point 74 :  0.25000.33330.0833  plane waves:  19065
 k-point 75 :  0.33330.33330.0833  plane waves:  19057
 k-point 76 :  0.41670.33330.0833  plane waves:  19036
 k-point 77 :  0.50000.33330.0833  plane waves:  19054
 k-point 78 :  0.00000.41670.0833  plane waves:  19042
 k-point 79 :  0.08330.41670.0833  plane waves:  19030
 k-point 80 :  0.16670.41670.0833  plane waves:  19034
 k-point 81 :  0.25000.41670.0833  plane waves:  19031
 k-point 82 :  0.33330.41670.0833  plane waves:  19036
 k-point 83 :  0.41670.41670.0833  plane waves:  19026
 k-point 84 :  0.50000.41670.0833  plane waves:  19022
 k-point 85 :  0.00000.50000.0833  plane waves:  19028
 k-point 86 :  0.08330.50000.0833  plane waves:  19018
 k-point 87 :  0.16670.50000.0833  plane waves:  19024
 k-point 88 :  0.25000.50000.0833  plane waves:  19030
 k-point 89 :  0.33330.50000.0833  plane waves:  19054
 k-point 90 :  0.41670.50000.0833  plane waves:  19022
 k-point 91 :  0.50000.50000.0833  plane waves:  18984
 k-point 92 :  0.00000.16670.1667  plane waves:  19097
 k-point 93 :  0.08330.16670.1667  plane waves:  19087
 k-point 94 :  0.16670.16670.1667  plane waves:  19045
 k-point 95 :  0.25000.16670.1667  plane waves:  19044
 k-point 96 :  0.33330.16670.1667  plane waves:  19028
 k-point 97 :  0.41670.16670.1667  plane waves:  19047
 k-point 98 :  0.50000.16670.1667  plane waves:  19084
 k-point 99 :  0.00000.25000.1667  plane waves:  19066
 k-point ** :  0.08330.25000.1667  plane waves:  19057
 k-point ** :  0.16670.25000.1667  plane waves:  19044
 k-point ** :  0.25000.25000.1667  plane waves:  19053
 k-point ** :  0.33330.25000.1667  plane waves:  19049
 k-point ** :  0.41670.25000.1667  plane waves:  19026
 k-point ** :  0.50000.25000.1667  plane waves:  19028
 k-point ** :  0.00000.33330.1667  plane waves:  19042
 k-point ** :  0.08330.33330.1667  plane waves:  19042
 k-point ** :  0.16670.33330.1667  plane waves:  19028
 k-point ** :  0.25000.33330.1667  plane waves:  19049
 k-point ** :  0.33330.33330.1667  plane waves:  19049
 k-point ** :  0.41670.33330.1667  plane waves:  19014
 k-point ** :  0.50000.33330.1667  plane waves:  19044
 k-point ** :  0.00000.41670.1667  plane waves:  19048
 k-point ** :  0.08330.41670.1667  plane waves:  19034
 k-point ** :  0.16670.41670.1667  plane waves:  19047
 k-point ** :  0.25000.41670.1667  plane waves:  19026
 k-point ** :  0.33330.41670.1667  plane waves:  19014
 k-point ** :  0.41670.41670.1667  plane waves:  19025
 k-point ** :  0.50000.41670.1667  plane waves:  19012
 k-point ** :  0.00000.50000.1667  plane waves:  19024
 k-point ** :  0.08330.50000.1667  plane waves:  19024
 k-point ** :  0.16670.50000.1667  plane waves:  19084
 k-point ** :  0.25000.50000.1667  plane waves:  19028
 k-point ** :  0.33330.50000.1667  plane waves:  19044
 k-point ** :  0.41670.50000.1667  plane waves:  19012
 k-point ** :  0.50000.50000.1667  plane waves:  19004
 k-point ** :  0.00000.25000.2500  plane waves:  19045
 k-point ** :  0.08330.25000.2500  plane waves:  19063
 k-point ** :  0.16670.25000.2500  plane waves:  19053
 k-point ** :  0.25000.25000.2500  plane waves:  19024
 k-point ** :  0.33330.25000.2500  plane waves:  19028
 k-point ** :  0.41670.25000.2500  plane waves:  19024
 k-point ** :  0.50000.25000.2500  plane waves:  19048
 k-point ** :  0.00000.33330.2500  plane waves:  19058
 k-point ** :  0.08330.33330.2500  plane waves:  19065
 k-point ** :  0.16670.33330.2500  plane waves:  19049
 k-point ** :  0.25000.33330.2500  plane waves:  19028
 k-point ** :  0.33330.33330.2500  plane waves:  19011
 k-point ** :  0.41670.33330.2500  plane waves:  19021
 k-point ** :  0.50000.33330.2500  plane waves:  19014
 k-point ** :  0.00000.41670.2500  plane waves:  19019
 k-point ** :  0.08330.41670.2500  plane waves:  19031
 k-point ** :  0.16670.41670.2500  plane waves:  19026
 k-point ** :  0.25000.41670.2500  plane waves:  19024
 k-point ** :  0.33330.41670.2500  plane waves:  19021
 k-point ** :  0.41670.41670.2500  plane waves:  19019
 k-point ** :  0.50000.41670.2500  plane waves:  19024
 k-point ** :  0.00000.50000.2500  plane waves:  19042
 k-point ** :  0.08330.50000.2500  plane waves:  19030
 k-point ** :  0.16670.50000.2500  plane waves:  19028
 k-point ** :  0.25000.50000.2500  plane waves:  19048
 k-point ** :  0.33330.50000.2500  plane waves:  19014
 k-point ** :  0.41670.50000.2500  plane waves:  19024
 k-point ** :  0.50000.50000.2500  plane waves:  19048
 k-point ** :  0.00000.33330.3333  plane waves:  19042
 k-point ** :  0.08330.33330.3333  plane waves:  19057
 k-point ** :  0.16670.33330.3333  plane waves:  19049
 k-point ** :  0.25000.33330.3333  plane waves:  19011
 k-point ** :  0.33330.33330.3333  plane waves:  19045
 k-point ** :  0.41670.33330.3333  plane waves:  19044
 k-point ** :  0.50000.33330.3333  plane waves:  19034
 k-point ** :  0.00000.41670.3333  plane waves:  19038
 k-point ** :  0.08330.41670.3333  plane waves:  19036
 k-point ** :  0.16670.41670.3333  plane waves:  19014
 k-point ** :  0.25000.41670.3333  plane waves:  19021
 k-point ** :  0.33330.41670.3333  plane waves:  19044
 k-point ** :  0.41670.41670.3333  plane waves:  19029
 k-point ** :  0.50000.41670.3333  plane waves:  19038
 k-point ** :  0.00000.50000.3333  plane waves:  19026
 k-point ** :  0.08330.50000.3333  plane waves:  19054
 k-point ** :  0.16670.50000.3333  plane waves:  19044
 k-point ** :  0.25000.50000.3333  plane waves:  19014
 k-point ** :  0.33330.50000.3333  plane waves:  19034
 k-point ** :  0.41670.50000.3333  plane waves:  19038
 k-point ** :  0.50000.50000.3333  plane waves:  19044
 k-point ** :  0.00000.41670.4167  plane waves:  19036
 k-point ** :  0.08330.41670.4167  plane waves:  19026
 k-point ** :  0.16670.41670.4167  plane waves:  19025
 k-point ** :  0.25000.41670.4167  plane waves:  19019
 k-point ** :  0.33330.41670.4167  plane waves:  19029
 k-point ** :  0.41670.41670.4167  plane waves:  19048
 k-point ** :  0.50000.41670.4167  plane waves:  19044
 k-point ** :  0.00000.50000.4167  plane waves:  19016
 k-point ** :  0.08330.50000.4167  plane waves:  19022
 k-point ** :  0.16670.50000.4167  plane waves:  19012
 k-point ** :  0.25000.50000.4167  plane waves:  19024
 k-point ** :  0.33330.50000.4167  plane waves:  19038
 k-point ** :  0.41670.50000.4167  plane waves:  19044
 k-point ** :  0.50000.50000.4167  plane waves:  19040
 k-point ** :  0.00000.50000.5000  plane waves:  18952
 k-point ** :  0.08330.50000.5000  plane waves:  18984
 k-point ** :  0.16670.50000.5000  plane waves:  19004
 k-point ** :  0.25000.50000.5000  plane waves:  19048
 k-point ** :  0.33330.50000.5000  plane waves:  19044
 k-point ** :  0.41670.50000.5000  plane waves:  19040
 k-point ** :  0.50000.50000.5000  plane waves:  19064

 maximum and minimum number of plane-waves per node :  19117 18952

 maximum number of plane-waves:  19117
 maximal index in each direction: 
   IXMAX= 16   IYMAX= 16   IZMAX= 16
   IXMIN=-17   IYMIN=-17   IZMIN=-17

 NGX is ok and might be reduce to  68
 NGY is ok and might be reduce to  68
 NGZ is ok and might be reduce to  68

 parallel 3dFFT wavefunction:
    minimum data exchange during FFTs selected (reduces bandwidth)
 parallel 3dFFT charge:
    minimum data exchange during FFTs selected (reduces bandwidth)

 For storing wavefunctions ******* MBYTES are necessary
 For predicting wavefunctions  140.25 MBYTES are necessary
Broyden mixing: mesh for mixing (old mesh)
   NGX = 33   NGY = 33   NGZ = 33
  (NGX  =140   NGY  =140   NGZ  =140)
 gives a total of  35937 points
 initial charge density was supplied:
 charge density of overlapping atoms calculated
 number of electron  352.0000000 magnetization 
 keeping initial charge density in first step


--------------------------------------------------------------------------------------------------------


 Maximum index for augmentation-charges        28621 (set IRDMAX)


--------------------------------------------------------------------------------------------------------


 First call to EWALD:  gamma=   0.239
 Maximum number of real-space cells 3x 3x 3
 Maximum number of reciprocal cells 3x 3x 3

    FEWALD:  VPU time    0.01: CPU time    0.31


----------------------------------------- Iteration    1(   1)  ---------------------------------------


    POTLOK:  VPU time    3.12: CPU time   13.88
    SETDIJ:  VPU time    2.00: CPU time    3.51
    EDDAV :  VPU time 5486.91: CPU time 5541.65
    DOS   :  VPU time    0.00: CPU time   -0.03
    ------------------------------------------
      LOOP:  VPU time 5492.34: CPU time 5560.28

 eigenvalue-minimisations  : 84672
 total energy-change (2. order) : 0.3883439E+04  (-0.1877047E+05)
 number of electron  352.0000000 magnetization 
 augmentation part   352.0000000 magnetization 

 Free energy of the ion-electron system (eV)
  ---------------------------------------------------
  alpha Z        PSCENC =      3204.73595890
  Ewald energy   TEWEN  =    -34459.87472367
  -1/2 Hartree   DENC   =    -10916.57938056
  -V(xc)+E(xc)   XCENC  =      1398.20909182
  PAW double counting   =     34625.67335558   -39234.46421604
  entropy T*S    EENTRO =        -0.00026655
  eigenvalues    EBANDS =      4754.39902737
  atomic energy  EATOM  =     44511.34040493
  ---------------------------------------------------
  free energy    TOTEN  =      3883.43925179 eV

  energy without entropy =     3883.43951833  energy(sigma->0) =     3883.43938506


--------------------------------------------------------------------------------------------------------




----------------------------------------- Iteration    1(   2)  ---------------------------------------


    EDDAV :  VPU time 5465.59: CPU time 5530.91
    DOS   :  VPU time    0.00: CPU time   -0.00
    ------------------------------------------
      LOOP:  VPU time 5466.05: CPU time 5532.10

 eigenvalue-minimisations  : 84672
 total energy-change (2. order) :-0.3442491E+04  (-0.3308952E+04)
 number of electron  352.0000000 magnetization 
 augmentation part   352.0000000 magnetization 

 Free energy of the ion-electron system (eV)
  ---------------------------------------------------
  alpha Z        PSCENC =      3204.73595890
  Ewald energy   TEWEN  =    -34459.87472367
  -1/2 Hartree   DENC   =    -10916.57938056
  -V(xc)+E(xc)   XCENC  =      1398.20909182
  PAW double counting   =     34625.67335558   -39234.46421604
  entropy T*S    EENTRO =        -0.00033962
  eigenvalues    EBANDS =      1311.90804655
  atomic energy  EATOM  =     44511.34040493
  ---------------------------------------------------
  free energy    TOTEN  =       440.94819788 eV

  energy without entropy =      440.94853751  energy(sigma->0) =      440.94836770


--------------------------------------------------------------------------------------------------------




----------------------------------------- Iteration    1(   3)  ---------------------------------------


    EDDAV :  VPU time 5534.38: CPU time 5545.09
    DOS   :  VPU time    0.00: CPU time   -0.00
    ------------------------------------------
      LOOP:  VPU time 5534.63: CPU time 5545.44

 eigenvalue-minimisations  : 84672
 total energy-change (2. order) :-0.5492970E+03  (-0.5021436E+03)
 number of electron  352.0000000 magnetization 
 augmentation part   352.0000000 magnetization 

 Free energy of the ion-electron system (eV)
  ---------------------------------------------------
  alpha Z        PSCENC =      3204.73595890
  Ewald energy   TEWEN  =    -34459.87472367
  -1/2 Hartree   DENC   =    -10916.57938056
  -V(xc)+E(xc)   XCENC  =      1398.20909182
  PAW double counting   =     34625.67335558   -39234.46421604
  entropy T*S    EENTRO =        -0.00048603
  eigenvalues    EBANDS =       762.61116405
  atomic energy  EATOM  =     44511.34040493
  ---------------------------------------------------
  free energy    TOTEN  =      -108.34883102 eV

  energy without entropy =     -108.34834498  energy(sigma->0) =     -108.34858800


--------------------------------------------------------------------------------------------------------




----------------------------------------- Iteration    1(   4)  ---------------------------------------


    EDDAV :  VPU time 5594.89: CPU time 5737.46
    DOS   :  VPU time    0.00: CPU time   -0.04
    ------------------------------------------
      LOOP:  VPU time 5595.13: CPU time 5737.76

 eigenvalue-minimisations  : 89048
 total energy-change (2. order) :-0.3660117E+02  (-0.3533886E+02)
 number of electron  352.0000000 magnetization 
 augmentation part   352.0000000 magnetization 

 Free energy of the ion-electron system (eV)
  ---------------------------------------------------
  alpha Z        PSCENC =      3204.73595890
  Ewald energy   TEWEN  =    -34459.87472367
  -1/2 Hartree   DENC   =    -10916.57938056
  -V(xc)+E(xc)   XCENC  =      1398.20909182
  PAW double counting   =     34625.67335558   -39234.46421604
  entropy T*S    EENTRO =        -0.00068322
  eigenvalues    EBANDS =       726.01019224
  atomic energy  EATOM  =     44511.34040493
  ---------------------------------------------------
  free energy    TOTEN  =      -144.95000002 eV

  energy without entropy =     -144.94931680  energy(sigma->0) =     -144.94965841


--------------------------------------------------------------------------------------------------------




----------------------------------------- Iteration    1(   5)  ---------------------------------------


    EDDAV :  VPU time 5675.75: CPU time 5802.81
    DOS   :  VPU time   -0.00: CPU time   -0.04
    CHARGE:  VPU time  217.01: CPU time  222.12
    MIXING:  VPU time    0.13: CPU time    0.14
    ------------------------------------------
      LOOP:  VPU time 5893.12: CPU time 6025.37

 eigenvalue-minimisations  : 90216
 total energy-change (2. order) :-0.4193627E+00  (-0.4180392E+00)
 number of electron  352.0000006 magnetization 
 augmentation part   214.5392550 magnetization 

 Broyden mixing:
  rms(total) = 0.38891E+01    rms(broyden)= 0.38891E+01
  rms(prec ) = 0.57216E+01
  weight for this iteration     100.00

 Free energy of the ion-electron system (eV)
  ---------------------------------------------------
  alpha Z        PSCENC =      3204.73595890
  Ewald energy   TEWEN  =    -34459.87472367
  -1/2 Hartree   DENC   =    -10916.57938056
  -V(xc)+E(xc)   XCENC  =      1398.20909182
  PAW double counting   =     34625.67335558   -39234.46421604
  entropy T*S    EENTRO =        -0.00072045
  eigenvalues    EBANDS =       725.59086679
  atomic energy  EATOM  =     44511.34040493
  ---------------------------------------------------
  free energy    TOTEN  =      -145.36936270 eV

  energy without entropy =     -145.36864225  energy(sigma->0) =     -145.36900248


--------------------------------------------------------------------------------------------------------




----------------------------------------- Iteration    1(   6)  ---------------------------------------


    POTLOK:  VPU time    0.93: CPU time    0.93
    SETDIJ:  VPU time    3.85: CPU time    3.96
    EDDAV :  VPU time 5724.00: CPU time 5873.66
    DOS   :  VPU time   -0.01: CPU time   -0.10
    CHARGE:  VPU time  219.19: CPU time  222.35
    MIXING:  VPU time    0.08: CPU time    0.66
    ------------------------------------------
      LOOP:  VPU time 5948.34: CPU time 6101.98

 eigenvalue-minimisations  : 91336
 total energy-change (2. order) : 0.1538233E+02  (-0.2774331E+02)
 number of electron  352.0000007 magnetization 
 augmentation part   239.7630677 magnetization 

 Broyden mixing:
  rms(total) = 0.19498E+01    rms(broyden)= 0.19498E+01
  rms(prec ) = 0.27008E+01
  weight for this iteration     100.00

 eigenvalues of (default mixing * dielectric matrix)
  average eigenvalue GAMMA=   0.6673
  0.6673

 Free energy of the ion-electron system (eV)
  ---------------------------------------------------
  alpha Z        PSCENC =      3204.73595890
  Ewald energy   TEWEN  =    -34459.87472367
  -1/2 Hartree   DENC   =    -10109.77351890
  -V(xc)+E(xc)   XCENC  =      1357.65834436
  PAW double counting   =     33697.26650444   -38041.37736424
  entropy T*S    EENTRO =        -0.00065468
  eigenvalues    EBANDS =      -289.96198022
  atomic energy  EATOM  =     44511.34040493
  ---------------------------------------------------
  free energy    TOTEN  =      -129.98702907 eV

  energy without entropy =     -129.98637440  energy(sigma->0) =     -129.98670174


--------------------------------------------------------------------------------------------------------




----------------------------------------- Iteration    1(   7)  ---------------------------------------


    POTLOK:  VPU time    0.89: CPU time    0.90
    SETDIJ:  VPU time    2.02: CPU time    2.09
    EDDAV :  VPU time 5961.53: CPU time 6021.04
    DOS   :  VPU time   -0.03: CPU time   -0.34
    CHARGE:  VPU time  218.44: CPU time  221.07
    MIXING:  VPU time    0.06: CPU time    0.82
    ------------------------------------------
      LOOP:  VPU time 6183.25: CPU time 6246.60

 eigenvalue-minimisations  : 94936
 total energy-change (2. order) : 0.1127478E+02  (-0.5111968E+01)
 number of electron  352.0000007 magnetization 
 augmentation part   230.4104710 magnetization 

 Broyden mixing:
  rms(total) = 0.25338E+00    rms(broyden)= 0.25337E+00
  rms(prec ) = 0.38444E+00
  weight for this iteration     100.00

 eigenvalues of (default mixing * dielectric matrix)
  average eigenvalue GAMMA=   1.2701
  1.8971  0.6430

 Free energy of the ion-electron system (eV)
  ---------------------------------------------------
  alpha Z        PSCENC =      3204.73595890
  Ewald energy   TEWEN  =    -34459.87472367
  -1/2 Hartree   DENC   =    -10348.99806640
  -V(xc)+E(xc)   XCENC  =      1370.21207501
  PAW double counting   =     34347.39437994   -38883.41101101
  entropy T*S    EENTRO =        -0.00164877
  eigenvalues    EBANDS =       139.89037796
  atomic energy  EATOM  =     44511.34040493
[...]
     72       0.3659      2.00000
     73       0.3660      2.00000
     74       0.3660      2.00000
     75       0.3660      2.00000
     76       0.3660      2.00000
     77       0.3661      2.00000
     78       0.3661      2.00000
     79       0.3661      2.00000
     80       0.3661      2.00000
     81       0.3662      2.00000
     82       0.3662      2.00000
     83       0.3662      2.00000
     84       0.3670      2.00000
     85       0.3678      2.00000
     86       0.3680      2.00000
     87       0.3686      2.00000
     88       0.3686      2.00000
     89       0.4726      2.00000
     90       0.4726      2.00000
     91       0.4729      2.00000
     92       0.4731      2.00000
     93       0.4734      2.00000
     94       0.4734      2.00000
     95       0.4735      2.00000
     96       0.4735      2.00000
     97       0.4738      2.00000
     98       0.4738      2.00000
     99       0.4739      2.00000
    100       0.4739      2.00000
    101       0.4743      2.00000
    102       0.4744      2.00000
    103       0.4747      2.00000
    104       0.4747      2.00000
    105       0.9025      2.00000
    106       0.9033      2.00000
    107       0.9033      2.00000
    108       0.9048      2.00000
    109       0.9049      2.00000
    110       0.9049      2.00000
    111       0.9049      2.00000
    112       0.9051      2.00000
    113       0.9052      2.00000
    114       0.9052      2.00000
    115       0.9052      2.00000
    116       0.9052      2.00000
    117       0.9054      2.00000
    118       0.9054      2.00000
    119       0.9054      2.00000
    120       0.9054      2.00000
    121       0.9055      2.00000
    122       0.9057      2.00000
    123       0.9057      2.00000
    124       0.9057      2.00000
    125       0.9058      2.00000
    126       0.9073      2.00000
    127       0.9073      2.00000
    128       0.9080      2.00000
    129       1.1388      2.00000
    130       1.1399      2.00000
    131       1.1399      2.00000
    132       1.1399      2.00000
    133       1.1404      2.00000
    134       1.1404      2.00000
    135       1.1406      2.00000
    136       1.1406      2.00000
    137       1.1408      2.00000
    138       1.1408      2.00000
    139       1.1410      2.00000
    140       1.1410      2.00000
    141       1.1416      2.00000
    142       1.1416      2.00000
    143       1.1416      2.00000
    144       1.1427      2.00000
    145       1.6028      2.00000
    146       1.6028      2.00000
    147       1.6029      2.00000
    148       1.6030      2.00000
    149       1.6031      2.00000
    150       1.6031      2.00000
    151       1.6031      2.00000
    152       1.6031      2.00000
    153       1.6031      2.00000
    154       1.6032      2.00000
    155       1.6032      2.00000
    156       1.6033      2.00000
    157       1.6034      2.00000
    158       1.6035      2.00000
    159       1.6035      2.00000
    160       1.6035      2.00000
    161       1.6035      2.00000
    162       1.6036      2.00000
    163       1.6036      2.00000
    164       1.6036      2.00000
    165       1.6037      2.00000
    166       1.6037      2.00000
    167       1.6038      2.00000
    168       1.6038      2.00000
    169       4.0199      0.00000
    170       4.0219      0.00000
    171       4.0219      0.00000
    172       4.0245      0.00000
    173       4.0250      0.00000
    174       4.0251      0.00000
    175       4.0251      0.00000
    176       4.0252      0.00000
    177       4.0252      0.00000
    178       4.0252      0.00000
    179       4.0253      0.00000
    180       4.0253      0.00000
    181       4.0255      0.00000
    182       4.0255      0.00000
    183       4.0255      0.00000
    184       4.0255      0.00000
    185       4.0255      0.00000
    186       4.0256      0.00000
    187       4.0256      0.00000
    188       4.0257      0.00000
    189       4.0262      0.00000
    190       4.0288      0.00000
    191       4.0288      0.00000
    192       4.0309      0.00000
    193       9.4880      0.00000
    194       9.4880      0.00000
    195       9.4898      0.00000
    196       9.4934      0.00000
    197       9.4934      0.00000
    198       9.4936      0.00000
    199       9.4936      0.00000
    200       9.4940      0.00000
    201       9.4940      0.00000
    202       9.4940      0.00000
    203       9.4940      0.00000
    204       9.4941      0.00000
    205       9.4942      0.00000
    206       9.4943      0.00000
    207       9.4943      0.00000
    208       9.4943      0.00000
    209       9.4943      0.00000
    210       9.4947      0.00000
    211       9.4947      0.00000
    212       9.4949      0.00000
    213       9.4949      0.00000
    214       9.4985      0.00000
    215       9.5003      0.00000
    216       9.5003      0.00000


--------------------------------------------------------------------------------------------------------


 soft charge-density along one line, spin component           1
         0         1         2         3         4         5         6         7         8         9
 total charge-density along one line
 
 pseudopotential strength for first ion, spin component:           1
 -6.768   0.000  -0.000   0.000  -0.000  -0.108  -0.000   0.000
  0.000  -6.768  -0.000  -0.000  -0.000  -0.000  -0.108   0.000
 -0.000  -0.000  -6.751  -0.000  -0.000   0.000   0.000  -0.115
  0.000  -0.000  -0.000  -6.768   0.000  -0.000   0.000   0.000
 -0.000  -0.000  -0.000   0.000  -6.751   0.000   0.000   0.000
 -0.108  -0.000   0.000  -0.000   0.000   1.616   0.000  -0.000
 -0.000  -0.108   0.000   0.000   0.000   0.000   1.616  -0.000
  0.000   0.000  -0.115   0.000   0.000  -0.000  -0.000   1.620
 -0.000   0.000   0.000  -0.108  -0.000   0.000   0.000  -0.000
  0.000   0.000   0.000  -0.000  -0.115  -0.000  -0.000  -0.000
 -0.000  -0.000   0.000  -0.000  -0.000  -0.000  -0.000  -0.000
  0.000   0.000  -0.000   0.000   0.000  -0.000  -0.000   0.000
 -0.000  -0.000   0.000  -0.000   0.000   0.000   0.000   0.000
 -0.000  -0.000  -0.000  -0.000  -0.000  -0.000   0.000   0.000
 -0.000  -0.000   0.000  -0.000  -0.000  -0.000  -0.000  -0.000
  0.000  -0.000  -0.000   0.000   0.000  -0.000  -0.000   0.000
  0.000  -0.000  -0.000   0.000   0.000  -0.000  -0.000   0.000
  0.000   0.000  -0.000   0.000   0.000  -0.000  -0.000   0.000
 total augmentation occupancy for first ion, spin component:           1
  1.899  -0.000  -0.003  -0.000  -0.001  -0.024  -0.000   0.001   0.000   0.000   0.006   0.000   0.001   0.000  -0.000  -0.000
 -0.000   1.902  -0.001  -0.001  -0.003  -0.000  -0.028   0.001   0.000   0.001   0.005  -0.000   0.000   0.000  -0.000  -0.000
 -0.003  -0.001   1.918  -0.000  -0.003   0.001   0.001  -0.068   0.001   0.002   0.014   0.002   0.000  -0.000  -0.000  -0.000
 -0.000  -0.001  -0.000   1.905   0.001   0.000   0.000   0.001  -0.031   0.000   0.003  -0.000   0.000   0.001  -0.000  -0.000
 -0.001  -0.003  -0.003   0.001   1.907   0.000   0.001   0.002   0.000  -0.060   0.008   0.001   0.000   0.000   0.000   0.000
 -0.024  -0.000   0.001   0.000   0.000   0.064   0.000   0.001  -0.000  -0.000  -0.001   0.000   0.001  -0.000   0.000  -0.000
 -0.000  -0.028   0.001   0.000   0.001   0.000   0.066  -0.001  -0.000   0.001  -0.000   0.001   0.000  -0.000   0.000   0.000
  0.001   0.001  -0.068   0.001   0.002   0.001  -0.001   0.063  -0.001  -0.001  -0.008   0.000   0.000   0.000  -0.000   0.000
  0.000   0.000   0.001  -0.031   0.000  -0.000  -0.000  -0.001   0.068  -0.001   0.001   0.001  -0.000   0.001   0.000   0.000
  0.000   0.001   0.002   0.000  -0.060  -0.000   0.001  -0.001  -0.001   0.061  -0.005   0.000  -0.000  -0.000   0.001   0.000
  0.006   0.005   0.014   0.003   0.008  -0.001  -0.000  -0.008   0.001  -0.005   1.155  -0.321   0.000  -0.000   0.003   0.000
  0.000  -0.000   0.002  -0.000   0.001   0.000   0.001   0.000   0.001   0.000  -0.321   0.130   0.000  -0.000  -0.001  -0.000
  0.001   0.000   0.000   0.000   0.000   0.001   0.000   0.000  -0.000  -0.000   0.000   0.000   0.166  -0.001   0.001  -0.011
  0.000   0.000  -0.000   0.001   0.000  -0.000  -0.000   0.000   0.001  -0.000  -0.000  -0.000  -0.001   0.170  -0.002  -0.000
 -0.000  -0.000  -0.000  -0.000   0.000   0.000   0.000  -0.000   0.000   0.001   0.003  -0.001   0.001  -0.002   0.168  -0.000
 -0.000  -0.000  -0.000  -0.000   0.000  -0.000   0.000   0.000   0.000   0.000   0.000  -0.000  -0.011  -0.000  -0.000   0.001
 -0.000  -0.000  -0.000  -0.000   0.000   0.000   0.000  -0.000  -0.000   0.000   0.000   0.000  -0.000  -0.012  -0.000   0.000
  0.000  -0.000   0.000   0.000  -0.000  -0.000  -0.000   0.000  -0.000  -0.000  -0.000   0.000  -0.000  -0.000  -0.011   0.000


------------------------ aborting loop because EDIFF is reached ----------------------------------------




--------------------------------------------------------------------------------------------------------


    CHARGE:  VPU time  219.97: CPU time  223.02
    FORLOC:  VPU time    0.13: CPU time    0.15
    FORNL :  VPU time  533.00: CPU time  535.16
    STRESS:  VPU time 5699.91: CPU time 5702.01
    FORCOR:  VPU time    0.95: CPU time    1.01
    FORHAR:  VPU time    0.36: CPU time    0.36
    MIXING:  VPU time    0.05: CPU time    0.40


--------------------------------------------------------------------------------------------------------



  FREE ENERGIE OF THE ION-ELECTRON SYSTEM (eV)
  ---------------------------------------------------
  free  energy   TOTEN  =      -118.440667 eV

  energy  without entropy=     -118.439491  energy(sigma->0) =     -118.440079
 

  FORCE on cell =-STRESS in cart. coord.  units (eV/reduce length):
  Direction    X        Y        Z        XY       YZ       ZX
  --------------------------------------------------------------------------------------
  Alpha Z   3204.74   3204.74   3204.74
  Ewald   -11486.71 -11486.66 -11486.66      0.00      0.00      0.00
  Hartree   3410.60   3410.64   3410.64     -0.00     -0.00     -0.00
  E(xc)    -2000.91  -2000.91  -2000.91      0.00     -0.00     -0.00
  Local     3737.29   3737.20   3737.20      0.00      0.00     -0.00
  n-local  -1190.88  -1194.39  -1187.37      1.47      0.83      0.19
  augment   1805.97   1805.97   1805.97     -0.00     -0.00     -0.00
  Kinetic   2502.15   2498.46   2505.84      0.37     -1.10     -2.58
  -------------------------------------------------------------------------------------
  Total      -17.75    -17.75    -17.75     -0.00      0.00      0.00
  in kB      -69.68    -69.68    -69.68     -0.00      0.00      0.00
  external pressure =      -69.68 kB  Pullay stress =        0.00 kB


 VOLUME and BASIS-vectors are now :
 -----------------------------------------------------------------------------
  energy-cutoff  :      750.00
  volume of cell :      408.24
      direct lattice vectors                 reciprocal lattice vectors
     7.418288256  0.000000000  0.000000000     0.134801987  0.000000000  0.000000000
     0.000000000  7.418288256  0.000000000     0.000000000  0.134801987  0.000000000
     0.000000000  0.000000000  7.418288256     0.000000000  0.000000000  0.134801987

  length of vectors
     7.418288256  7.418288256  7.418288256     0.134801987  0.134801987  0.134801987


 FORCES acting on ions
    electron-ion (+dipol)            ewald-force                    non-local-force                 convergence-correction
 -----------------------------------------------------------------------------------------------
   0.553E+01 -.103E-12 0.885E-06   -.554E+01 -.631E-13 -.844E-13   -.388E-01 0.000E+00 0.169E-20   0.369E-04 0.255E-12 0.550E-12
   -.144E+01 -.114E-12 -.880E-06   0.146E+01 -.266E-14 -.355E-14   -.178E-01 0.678E-20 0.678E-20   -.552E-04 0.313E-12 0.578E-12
   0.459E+00 0.791E-12 0.679E-11   -.463E+00 -.737E-13 -.391E-13   0.361E-02 -.339E-20 0.000E+00   -.558E-05 -.153E-12 0.530E-12
   -.371E+00 -.481E-11 0.101E-10   0.364E+00 -.258E-13 0.258E-13   0.655E-02 0.678E-20 0.000E+00   0.150E-05 -.206E-12 0.538E-12
   0.459E+00 -.118E-12 0.210E-09   -.463E+00 -.115E-13 -.959E-13   0.361E-02 0.339E-20 0.339E-20   -.487E-05 0.260E-12 -.137E-12
   -.371E+00 -.147E-12 0.203E-09   0.364E+00 -.311E-13 0.355E-14   0.655E-02 0.847E-21 0.000E+00   0.138E-05 0.308E-12 -.157E-12
   0.193E+00 0.810E-12 0.379E-10   -.191E+00 -.453E-13 0.320E-13   -.179E-02 0.678E-20 0.000E+00   -.707E-04 -.161E-12 -.165E-12
   -.179E+00 -.461E-11 0.322E-10   0.179E+00 -.258E-13 0.879E-13   -.413E-03 -.169E-20 0.169E-20   0.743E-04 -.207E-12 -.167E-12
   -.703E+00 -.135E+01 -.513E-10   0.703E+00 0.135E+01 -.107E-13   0.671E-02 0.383E-02 0.000E+00   0.340E-05 -.188E-04 0.580E-12
   -.709E+00 0.134E+01 -.529E-10   0.707E+00 -.134E+01 -.142E-13   0.683E-02 -.391E-02 0.000E+00   0.784E-05 0.319E-04 0.524E-12
   -.703E+00 0.135E+01 -.515E-10   0.703E+00 -.135E+01 -.888E-13   0.671E-02 -.383E-02 0.000E+00   0.340E-05 0.188E-04 0.548E-12
   -.709E+00 -.134E+01 -.529E-10   0.707E+00 0.134E+01 -.888E-13   0.683E-02 0.391E-02 0.000E+00   0.784E-05 -.319E-04 0.530E-12
   -.189E-01 -.111E+00 -.660E-11   0.213E-01 0.111E+00 -.462E-13   -.205E-02 0.128E-03 0.000E+00   0.310E-04 -.187E-04 -.104E-12
   -.213E-01 0.111E+00 -.579E-11   0.237E-01 -.111E+00 -.462E-13   -.202E-02 -.114E-03 0.000E+00   -.308E-04 0.508E-04 -.147E-12
   -.189E-01 0.111E+00 -.651E-11   0.213E-01 -.111E+00 0.320E-13   -.205E-02 -.128E-03 0.000E+00   0.310E-04 0.187E-04 -.159E-12
   -.213E-01 -.111E+00 -.265E-11   0.237E-01 0.111E+00 0.320E-13   -.202E-02 0.114E-03 -.169E-20   -.308E-04 -.508E-04 -.228E-12
   -.703E+00 -.113E-12 -.135E+01   0.703E+00 0.977E-14 0.135E+01   0.671E-02 0.169E-20 0.383E-02   0.328E-05 0.278E-12 -.187E-04
   -.709E+00 -.136E-12 0.134E+01   0.707E+00 -.506E-13 -.134E+01   0.683E-02 -.847E-20 -.391E-02   0.773E-05 0.252E-12 0.318E-04
   -.189E-01 0.813E-12 -.111E+00   0.213E-01 0.187E-13 0.111E+00   -.205E-02 0.000E+00 0.128E-03   0.310E-04 -.168E-12 -.186E-04
   -.213E-01 -.200E-11 0.111E+00   0.237E-01 0.790E-13 -.111E+00   -.202E-02 0.000E+00 -.114E-03   -.308E-04 -.167E-12 0.507E-04
   -.703E+00 -.123E-12 0.135E+01   0.703E+00 0.258E-13 -.135E+01   0.671E-02 0.169E-20 -.383E-02   0.328E-05 0.293E-12 0.187E-04
   -.709E+00 -.110E-12 -.134E+01   0.707E+00 -.879E-13 0.134E+01   0.683E-02 0.339E-20 0.391E-02   0.773E-05 0.294E-12 -.318E-04
   -.189E-01 0.812E-12 0.111E+00   0.213E-01 -.258E-13 -.111E+00   -.205E-02 -.169E-20 -.128E-03   0.310E-04 -.183E-12 0.186E-04
   -.213E-01 -.269E-13 -.111E+00   0.237E-01 0.311E-13 0.111E+00   -.202E-02 -.106E-20 0.114E-03   -.308E-04 -.210E-12 -.507E-04
   0.870E+00 0.370E-02 0.370E-02   -.874E+00 -.370E-02 -.370E-02   0.310E-02 -.234E-05 -.234E-05   -.106E-04 -.501E-05 -.501E-05
   -.488E+00 -.112E-02 -.112E-02   0.491E+00 0.111E-02 0.111E-02   -.295E-02 -.168E-04 -.168E-04   0.546E-05 0.279E-04 0.279E-04
   0.870E+00 -.370E-02 0.370E-02   -.874E+00 0.370E-02 -.370E-02   0.310E-02 0.234E-05 -.234E-05   -.106E-04 0.501E-05 -.501E-05
   -.488E+00 0.112E-02 -.112E-02   0.491E+00 -.111E-02 0.111E-02   -.295E-02 0.168E-04 -.168E-04   0.546E-05 -.279E-04 0.279E-04
   0.870E+00 0.370E-02 -.370E-02   -.874E+00 -.370E-02 0.370E-02   0.310E-02 -.234E-05 0.234E-05   -.106E-04 -.501E-05 0.501E-05
   -.488E+00 -.112E-02 0.112E-02   0.491E+00 0.111E-02 -.111E-02   -.295E-02 -.168E-04 0.168E-04   0.546E-05 0.279E-04 -.279E-04
   0.870E+00 -.370E-02 -.370E-02   -.874E+00 0.370E-02 0.370E-02   0.310E-02 0.234E-05 0.234E-05   -.106E-04 0.501E-05 0.501E-05
   -.488E+00 0.112E-02 0.112E-02   0.491E+00 -.111E-02 -.111E-02   -.295E-02 0.168E-04 0.168E-04   0.546E-05 -.279E-04 -.279E-04
 -----------------------------------------------------------------------------------------------
   0.156E-05 -.513E-10 -.190E-08   -.498E-13 0.560E-13 -.121E-12   -.222E-05 0.817E-18 0.237E-19   0.234E-05 0.515E-12 -.106E-11
 
 
 POSITION                                       TOTAL-FORCE (eV/Angst)
 -----------------------------------------------------------------------------------
      0.01000      0.00000      0.00000        -0.049413      0.000000     -0.000000
      3.70914      0.00000      0.00000         0.000962      0.000000     -0.000000
      0.00000      3.70914      0.00000        -0.000397      0.000000      0.000000
      3.70914      3.70914      0.00000        -0.000306      0.000000      0.000000
      0.00000      0.00000      3.70914        -0.000397     -0.000000     -0.000000
      3.70914      0.00000      3.70914        -0.000306      0.000000     -0.000000
      0.00000      3.70914      3.70914         0.000033      0.000000     -0.000000
      3.70914      3.70914      3.70914        -0.000240     -0.000000      0.000000
      1.85457      1.85457      0.00000         0.005888      0.006675      0.000000
      5.56372      1.85457      0.00000         0.005683     -0.006400     -0.000000
      1.85457      5.56372      0.00000         0.005888     -0.006675     -0.000000
      5.56372      5.56372      0.00000         0.005683      0.006400     -0.000000
      1.85457      1.85457      3.70914         0.000321      0.000121      0.000000
      5.56372      1.85457      3.70914         0.000319     -0.000127     -0.000000
      1.85457      5.56372      3.70914         0.000321     -0.000121     -0.000000
      5.56372      5.56372      3.70914         0.000319      0.000127     -0.000000
      1.85457      0.00000      1.85457         0.005888      0.000000      0.006675
      5.56372      0.00000      1.85457         0.005683     -0.000000     -0.006400
      1.85457      3.70914      1.85457         0.000321      0.000000      0.000121
      5.56372      3.70914      1.85457         0.000319      0.000000     -0.000127
      1.85457      0.00000      5.56372         0.005888      0.000000     -0.006675
      5.56372      0.00000      5.56372         0.005683      0.000000      0.006400
      1.85457      3.70914      5.56372         0.000321      0.000000     -0.000121
      5.56372      3.70914      5.56372         0.000319      0.000000      0.000127
      0.00000      1.85457      1.85457        -0.000294     -0.000013     -0.000013
      3.70914      1.85457      1.85457         0.000600      0.000002      0.000002
      0.00000      5.56372      1.85457        -0.000294      0.000013     -0.000013
      3.70914      5.56372      1.85457         0.000600     -0.000002      0.000002
      0.00000      1.85457      5.56372        -0.000294     -0.000013      0.000013
      3.70914      1.85457      5.56372         0.000600      0.000002     -0.000002
      0.00000      5.56372      5.56372        -0.000294      0.000013      0.000013
      3.70914      5.56372      5.56372         0.000600     -0.000002     -0.000002
 -----------------------------------------------------------------------------------
    total drift:                                0.000002     -0.000000     -0.000000


--------------------------------------------------------------------------------------------------------



 mean value of Nose-termostat <S>:     1.000 mean value of <T> :     0.000
 mean temperature <T/S>/<1/S>  :     0.000

     LOOP+:  VPU time********: CPU time********
  
  
 General timing and accounting informations for this job:
 ========================================================
  
                  Total CPU time used (sec):   124928.134
                            User time (sec):   122799.815
                          System time (sec):     2128.319
                         Elapsed time (sec):   127818.004
  
                   Maximum memory used (kb):    13943848.
                   Average memory used (kb):           0.
  
                          Minor page faults:      4875318
                          Major page faults:        75176
                 Voluntary context switches:       139000
