 running on    4 nodes
 distr:  one band on    1 nodes,    4 groups
 vasp.4.6.28 25Jul05 complex 
 POSCAR found :  1 types and   32 ions

 ----------------------------------------------------------------------------- 
|                                                                             |
|  ADVICE TO THIS USER RUNNING 'VASP/VAMP'   (HEAR YOUR MASTER'S VOICE ...):  |
|                                                                             |
|      You have a (more or less) 'large supercell' and for larger cells       |
|      it might be more efficient to use real space projection operators      |
|      So try LREAL= Auto  in the INCAR   file.                               |
|      Mind: If you want to do an extremely accurate calculations keep the    |
|      reciprocal projection scheme          (i.e. LREAL=.FALSE.)             |
|                                                                             |
 ----------------------------------------------------------------------------- 

 LDA part: xc-table for Pade appr. of Perdew
 POSCAR, INCAR and KPOINTS ok, starting setup
 FFT: planning ...           1
 reading WAVECAR
 WARNING: random wavefunctions but no delay for mixing, default for NELMDL
 entering main loop
       N       E                     dE             d eps       ncg     rms          rms(c)
DAV:   1     0.165223918526E+03    0.16522E+03   -0.41085E+04 26656   0.151E+03
DAV:   2    -0.101472480522E+03   -0.26670E+03   -0.24933E+03 31060   0.159E+02
DAV:   3    -0.118543520509E+03   -0.17071E+02   -0.16116E+02 33456   0.304E+01
DAV:   4    -0.118979605257E+03   -0.43608E+00   -0.43035E+00 31548   0.489E+00
DAV:   5    -0.118985337947E+03   -0.57327E-02   -0.57226E-02 31824   0.688E-01    0.501E+00
DAV:   6    -0.118593055088E+03    0.39228E+00   -0.68160E-02 30800   0.857E-01    0.311E+00
DAV:   7    -0.118309707439E+03    0.28335E+00   -0.19684E-01 29804   0.138E+00    0.136E-01
DAV:   8    -0.118309613595E+03    0.93844E-04   -0.15182E-03 31796   0.146E-01    0.408E-02
DAV:   9    -0.118309630332E+03   -0.16737E-04   -0.49793E-05 31416   0.210E-02    0.315E-03
DAV:  10    -0.118309628483E+03    0.18494E-05   -0.17307E-06 31948   0.444E-03    0.181E-03
DAV:  11    -0.118309625031E+03    0.34518E-05   -0.14243E-07 31472   0.113E-03    0.634E-04
DAV:  12    -0.118309623997E+03    0.10334E-05   -0.19716E-08 20252   0.430E-04    0.930E-05
DAV:  13    -0.118309623911E+03    0.86203E-07   -0.30845E-09 17656   0.191E-04    0.308E-05
DAV:  14    -0.118309623922E+03   -0.10351E-07   -0.44395E-10 17012   0.764E-05    0.976E-06
DAV:  15    -0.118309623943E+03   -0.20994E-07   -0.10120E-10 16780   0.404E-05    0.470E-06
DAV:  16    -0.118309623947E+03   -0.47357E-08   -0.55680E-12 16484   0.184E-05
   1 F= -.11830962E+03 E0= -.11830932E+03  d E =-.603658E-03
