  32  32   0   0
  0.1850611E+02  0.8397597E-09  0.8397597E-09  0.8397597E-09  0.5000000E-15
  1.000000000000000E-004
  CAR 
 unknown system                          
     10.89617176     -4.19793680  301      6.85835452      1.00000000
     -4.198  0.0000E+00  0.0000E+00
     -4.148  0.0000E+00  0.0000E+00
     -4.097  0.0000E+00  0.0000E+00
     -4.047  0.0000E+00  0.0000E+00
     -3.997  0.0000E+00  0.0000E+00
     -3.946  0.0000E+00  0.0000E+00
     -3.896  0.0000E+00  0.0000E+00
     -3.846  0.0000E+00  0.0000E+00
     -3.795  0.0000E+00  0.0000E+00
     -3.745  0.0000E+00  0.0000E+00
     -3.695  0.0000E+00  0.0000E+00
     -3.644  0.0000E+00  0.0000E+00
     -3.594  0.0000E+00  0.0000E+00
     -3.544  0.6849E-07  0.3446E-08
     -3.494  0.1370E+00  0.6892E-02
     -3.443  0.7654E+00  0.4540E-01
     -3.393  0.1164E+01  0.1040E+00
     -3.343  0.1851E+01  0.1971E+00
     -3.292  0.1845E+01  0.2899E+00
     -3.242  0.2058E+01  0.3935E+00
     -3.192  0.2478E+01  0.5182E+00
     -3.141  0.1633E+01  0.6004E+00
     -3.091  0.3020E+01  0.7523E+00
     -3.041  0.2368E+01  0.8714E+00
     -2.990  0.3473E+01  0.1046E+01
     -2.940  0.2728E+01  0.1183E+01
     -2.890  0.3936E+01  0.1381E+01
     -2.839  0.3388E+01  0.1552E+01
     -2.789  0.2205E+01  0.1663E+01
     -2.739  0.4301E+01  0.1879E+01
     -2.689  0.3981E+01  0.2080E+01
     -2.638  0.3213E+01  0.2241E+01
     -2.588  0.3859E+01  0.2435E+01
     -2.538  0.4811E+01  0.2677E+01
     -2.487  0.4521E+01  0.2905E+01
     -2.437  0.3443E+01  0.3078E+01
     -2.387  0.5231E+01  0.3341E+01
     -2.336  0.2943E+01  0.3489E+01
     -2.286  0.5061E+01  0.3744E+01
     -2.236  0.4231E+01  0.3957E+01
     -2.185  0.7201E+01  0.4319E+01
     -2.135  0.3484E+01  0.4495E+01
     -2.085  0.3762E+01  0.4684E+01
     -2.034  0.6884E+01  0.5030E+01
     -1.984  0.4290E+01  0.5246E+01
     -1.934  0.5055E+01  0.5500E+01
     -1.884  0.4589E+01  0.5731E+01
     -1.833  0.5843E+01  0.6025E+01
     -1.783  0.5657E+01  0.6310E+01
     -1.733  0.5749E+01  0.6599E+01
     -1.682  0.6500E+01  0.6926E+01
     -1.632  0.4764E+01  0.7166E+01
     -1.582  0.5830E+01  0.7459E+01
     -1.531  0.5663E+01  0.7744E+01
     -1.481  0.6363E+01  0.8064E+01
     -1.431  0.3782E+01  0.8254E+01
     -1.380  0.7960E+01  0.8655E+01
     -1.330  0.7409E+01  0.9028E+01
     -1.280  0.6726E+01  0.9366E+01
     -1.229  0.5005E+01  0.9618E+01
     -1.179  0.5340E+01  0.9887E+01
     -1.129  0.7061E+01  0.1024E+02
     -1.078  0.5350E+01  0.1051E+02
     -1.028  0.8107E+01  0.1092E+02
     -0.978  0.7764E+01  0.1131E+02
     -0.928  0.4535E+01  0.1154E+02
     -0.877  0.8763E+01  0.1198E+02
     -0.827  0.7327E+01  0.1235E+02
     -0.777  0.6848E+01  0.1269E+02
     -0.726  0.2908E+01  0.1284E+02
     -0.676  0.9538E+01  0.1332E+02
     -0.626  0.6375E+01  0.1364E+02
     -0.575  0.7926E+01  0.1404E+02
     -0.525  0.9059E+01  0.1449E+02
     -0.475  0.8160E+01  0.1490E+02
     -0.424  0.6480E+01  0.1523E+02
     -0.374  0.5329E+01  0.1550E+02
     -0.324  0.7116E+01  0.1586E+02
     -0.273  0.7094E+01  0.1621E+02
     -0.223  0.8681E+01  0.1665E+02
     -0.173  0.8951E+01  0.1710E+02
     -0.123  0.9280E+01  0.1757E+02
     -0.072  0.7458E+01  0.1794E+02
     -0.022  0.5351E+01  0.1821E+02
      0.028  0.9484E+01  0.1869E+02
      0.079  0.7375E+01  0.1906E+02
      0.129  0.8644E+01  0.1949E+02
      0.179  0.5583E+01  0.1978E+02
      0.230  0.9181E+01  0.2024E+02
      0.280  0.8442E+01  0.2066E+02
      0.330  0.9870E+01  0.2116E+02
      0.381  0.1095E+02  0.2171E+02
      0.431  0.5740E+01  0.2200E+02
      0.481  0.8770E+01  0.2244E+02
      0.532  0.7496E+01  0.2282E+02
      0.582  0.7445E+01  0.2319E+02
      0.632  0.7521E+01  0.2357E+02
      0.682  0.1037E+02  0.2409E+02
      0.733  0.1003E+02  0.2460E+02
      0.783  0.9894E+01  0.2509E+02
      0.833  0.9081E+01  0.2555E+02
      0.884  0.7732E+01  0.2594E+02
      0.934  0.1041E+02  0.2646E+02
      0.984  0.4786E+01  0.2670E+02
      1.035  0.1212E+02  0.2731E+02
      1.085  0.6137E+01  0.2762E+02
      1.135  0.1029E+02  0.2814E+02
      1.186  0.1205E+02  0.2875E+02
      1.236  0.1020E+02  0.2926E+02
      1.286  0.8266E+01  0.2968E+02
      1.337  0.5537E+01  0.2995E+02
      1.387  0.1380E+02  0.3065E+02
      1.437  0.9764E+01  0.3114E+02
      1.488  0.7581E+01  0.3152E+02
      1.538  0.9079E+01  0.3198E+02
      1.588  0.1168E+02  0.3257E+02
      1.638  0.6798E+01  0.3291E+02
      1.689  0.1115E+02  0.3347E+02
      1.739  0.1087E+02  0.3402E+02
      1.789  0.8839E+01  0.3446E+02
      1.840  0.1134E+02  0.3503E+02
      1.890  0.1157E+02  0.3561E+02
      1.940  0.9172E+01  0.3607E+02
      1.991  0.6770E+01  0.3642E+02
      2.041  0.1088E+02  0.3696E+02
      2.091  0.1153E+02  0.3754E+02
      2.142  0.1041E+02  0.3807E+02
      2.192  0.1040E+02  0.3859E+02
      2.242  0.9888E+01  0.3909E+02
      2.293  0.1267E+02  0.3972E+02
      2.343  0.8636E+01  0.4016E+02
      2.393  0.1107E+02  0.4072E+02
      2.443  0.1019E+02  0.4123E+02
      2.494  0.1125E+02  0.4180E+02
      2.544  0.6962E+01  0.4215E+02
      2.594  0.1603E+02  0.4295E+02
      2.645  0.9781E+01  0.4344E+02
      2.695  0.9624E+01  0.4393E+02
      2.745  0.1174E+02  0.4452E+02
      2.796  0.1049E+02  0.4505E+02
      2.846  0.9603E+01  0.4553E+02
      2.896  0.9743E+01  0.4602E+02
      2.947  0.1413E+02  0.4673E+02
      2.997  0.8888E+01  0.4718E+02
      3.047  0.1299E+02  0.4783E+02
      3.098  0.1298E+02  0.4848E+02
      3.148  0.9638E+01  0.4897E+02
      3.198  0.1296E+02  0.4962E+02
      3.248  0.1074E+02  0.5016E+02
      3.299  0.9790E+01  0.5065E+02
      3.349  0.8189E+01  0.5107E+02
      3.399  0.1367E+02  0.5175E+02
      3.450  0.1177E+02  0.5235E+02
      3.500  0.1642E+02  0.5317E+02
      3.550  0.9048E+01  0.5363E+02
      3.601  0.1257E+02  0.5426E+02
      3.651  0.1039E+02  0.5478E+02
      3.701  0.1290E+02  0.5543E+02
      3.752  0.1287E+02  0.5608E+02
      3.802  0.8859E+01  0.5653E+02
      3.852  0.1346E+02  0.5720E+02
      3.903  0.1109E+02  0.5776E+02
      3.953  0.1597E+02  0.5856E+02
      4.003  0.8026E+01  0.5897E+02
      4.054  0.1769E+02  0.5986E+02
      4.104  0.1028E+02  0.6037E+02
      4.154  0.1152E+02  0.6095E+02
      4.204  0.1022E+02  0.6147E+02
      4.255  0.1972E+02  0.6246E+02
      4.305  0.1308E+02  0.6312E+02
      4.355  0.1059E+02  0.6365E+02
      4.406  0.1353E+02  0.6433E+02
      4.456  0.1138E+02  0.6491E+02
      4.506  0.1368E+02  0.6559E+02
      4.557  0.1232E+02  0.6621E+02
      4.607  0.1671E+02  0.6705E+02
      4.657  0.7940E+01  0.6745E+02
      4.708  0.1055E+02  0.6798E+02
      4.758  0.1471E+02  0.6872E+02
      4.808  0.1734E+02  0.6960E+02
      4.859  0.9925E+01  0.7010E+02
      4.909  0.1229E+02  0.7071E+02
      4.959  0.1409E+02  0.7142E+02
      5.009  0.7858E+01  0.7182E+02
      5.060  0.1454E+02  0.7255E+02
      5.110  0.1119E+02  0.7311E+02
      5.160  0.1211E+02  0.7372E+02
      5.211  0.9221E+01  0.7419E+02
      5.261  0.1206E+02  0.7479E+02
      5.311  0.1467E+02  0.7553E+02
      5.362  0.1618E+02  0.7635E+02
      5.412  0.1228E+02  0.7696E+02
      5.462  0.1133E+02  0.7753E+02
      5.513  0.9670E+01  0.7802E+02
      5.563  0.1070E+02  0.7856E+02
      5.613  0.1499E+02  0.7931E+02
      5.664  0.9151E+01  0.7977E+02
      5.714  0.1940E+02  0.8075E+02
      5.764  0.9852E+01  0.8125E+02
      5.814  0.1297E+02  0.8190E+02
      5.865  0.1396E+02  0.8260E+02
      5.915  0.1838E+02  0.8353E+02
      5.965  0.1014E+02  0.8404E+02
      6.016  0.1280E+02  0.8468E+02
      6.066  0.1011E+02  0.8519E+02
      6.116  0.1351E+02  0.8587E+02
      6.167  0.1255E+02  0.8650E+02
      6.217  0.1501E+02  0.8725E+02
      6.267  0.1493E+02  0.8801E+02
      6.318  0.1142E+02  0.8858E+02
      6.368  0.1644E+02  0.8941E+02
      6.418  0.1319E+02  0.9007E+02
      6.469  0.1386E+02  0.9077E+02
      6.519  0.1258E+02  0.9140E+02
      6.569  0.1697E+02  0.9226E+02
      6.620  0.1053E+02  0.9279E+02
      6.670  0.1317E+02  0.9345E+02
      6.720  0.1582E+02  0.9424E+02
      6.770  0.1151E+02  0.9482E+02
      6.821  0.1588E+02  0.9562E+02
      6.871  0.1080E+02  0.9617E+02
      6.921  0.1710E+02  0.9703E+02
      6.972  0.1189E+02  0.9762E+02
      7.022  0.1702E+02  0.9848E+02
      7.072  0.1453E+02  0.9921E+02
      7.123  0.1420E+02  0.9993E+02
      7.173  0.1157E+02  0.1005E+03
      7.223  0.1377E+02  0.1012E+03
      7.274  0.1494E+02  0.1020E+03
      7.324  0.1617E+02  0.1028E+03
      7.374  0.1715E+02  0.1036E+03
      7.425  0.1639E+02  0.1045E+03
      7.475  0.1253E+02  0.1051E+03
      7.525  0.1165E+02  0.1057E+03
      7.575  0.1388E+02  0.1064E+03
      7.626  0.1174E+02  0.1070E+03
      7.676  0.1810E+02  0.1079E+03
      7.726  0.1160E+02  0.1085E+03
      7.777  0.1173E+02  0.1090E+03
      7.827  0.2050E+02  0.1101E+03
      7.877  0.2004E+02  0.1111E+03
      7.928  0.1246E+02  0.1117E+03
      7.978  0.1670E+02  0.1126E+03
      8.028  0.1383E+02  0.1132E+03
      8.079  0.1422E+02  0.1140E+03
      8.129  0.1506E+02  0.1147E+03
      8.179  0.1395E+02  0.1154E+03
      8.230  0.1235E+02  0.1160E+03
      8.280  0.1299E+02  0.1167E+03
      8.330  0.1866E+02  0.1176E+03
      8.380  0.1730E+02  0.1185E+03
      8.431  0.1521E+02  0.1193E+03
      8.481  0.1337E+02  0.1199E+03
      8.531  0.1670E+02  0.1208E+03
      8.582  0.1270E+02  0.1214E+03
      8.632  0.1683E+02  0.1223E+03
      8.682  0.1417E+02  0.1230E+03
      8.733  0.1531E+02  0.1238E+03
      8.783  0.1425E+02  0.1245E+03
      8.833  0.1971E+02  0.1255E+03
      8.884  0.1242E+02  0.1261E+03
      8.934  0.1538E+02  0.1269E+03
      8.984  0.1448E+02  0.1276E+03
      9.035  0.1199E+02  0.1282E+03
      9.085  0.1250E+02  0.1288E+03
      9.135  0.1163E+02  0.1294E+03
      9.186  0.1856E+02  0.1303E+03
      9.236  0.9304E+01  0.1308E+03
      9.286  0.1429E+02  0.1315E+03
      9.336  0.1105E+02  0.1321E+03
      9.387  0.1412E+02  0.1328E+03
      9.437  0.1020E+02  0.1333E+03
      9.487  0.1322E+02  0.1340E+03
      9.538  0.5000E+01  0.1342E+03
      9.588  0.9684E+01  0.1347E+03
      9.638  0.7109E+01  0.1351E+03
      9.689  0.7774E+01  0.1355E+03
      9.739  0.3355E+01  0.1356E+03
      9.789  0.2739E+01  0.1358E+03
      9.840  0.1590E+01  0.1358E+03
      9.890  0.4483E+00  0.1359E+03
      9.940  0.1025E+01  0.1359E+03
      9.991  0.6312E+00  0.1360E+03
     10.041  0.1241E-02  0.1360E+03
     10.091  0.8729E+00  0.1360E+03
     10.141  0.2136E-04  0.1360E+03
     10.192  0.7348E-03  0.1360E+03
     10.242  0.9128E-01  0.1360E+03
     10.292  0.0000E+00  0.1360E+03
     10.343  0.0000E+00  0.1360E+03
     10.393  0.0000E+00  0.1360E+03
     10.443  0.0000E+00  0.1360E+03
     10.494  0.0000E+00  0.1360E+03
     10.544  0.0000E+00  0.1360E+03
     10.594  0.0000E+00  0.1360E+03
     10.645  0.0000E+00  0.1360E+03
     10.695  0.0000E+00  0.1360E+03
     10.745  0.0000E+00  0.1360E+03
     10.796  0.0000E+00  0.1360E+03
     10.846  0.0000E+00  0.1360E+03
     10.896  0.0000E+00  0.1360E+03
