   32   32    1    1
  0.1850611E+02  0.8397597E-09  0.8397597E-09  0.8397597E-09  0.5000000E-15
  1.000000000000000E-004
  CAR 
 unknown system                          
   96  196   68
 
  0.0000000E+00  0.0000000E+00  0.0000000E+00  0.5787037E-03
   1       -3.5118
   2       -1.4298
   3       -1.4264
   4       -1.4264
   5       -1.4264
   6       -1.4264
   7       -1.4229
   8        0.6258
   9        0.6302
  10        0.6302
  11        0.6317
  12        0.6318
  13        0.6318
  14        0.6318
  15        0.6318
  16        0.6320
  17        0.6335
  18        0.6335
  19        0.6378
  20        2.6201
  21        2.6201
  22        2.6201
  23        2.6202
  24        2.7093
  25        2.7093
  26        2.7093
  27        2.7094
  28        4.2066
  29        4.2066
  30        4.2066
  31        5.2481
  32        5.2481
  33        5.2481
  34        6.1490
  35        6.1490
  36        6.1530
  37        6.1530
  38        6.1531
  39        6.1531
  40        6.1531
  41        6.1531
  42        6.1532
  43        6.1532
  44        6.1572
  45        6.1572
  46        7.2109
  47        7.2148
  48        7.2148
  49        7.2148
  50        7.2148
  51        7.2186
  52        7.3526
  53        7.3534
  54        7.3534
  55        7.3534
  56        7.3534
  57        7.3542
  58        8.0974
  59        8.0974
  60        8.0995
  61        8.1012
  62        8.1013
  63        8.1013
  64        8.1013
  65        8.1014
  66        8.1029
  67        8.1043
  68        8.1052
 
  0.8333333E-01  0.0000000E+00  0.0000000E+00  0.1157407E-02
   1       -3.4973
   2       -1.7576
   3       -1.4120
   4       -1.4120
   5       -1.4120
   6       -1.4120
   7       -1.0671
   8        0.3048
   9        0.3048
  10        0.3048
  11        0.3048
  12        0.6460
  13        0.6460
  14        0.6460
  15        0.6460
  16        0.9864
  17        0.9864
  18        0.9864
  19        0.9865
  20        2.3388
  21        2.3388
  22        2.3388
  23        2.3388
  24        3.0180
  25        3.0180
  26        3.0180
  27        3.0180
  28        3.8908
  29        4.2201
  30        4.2201
  31        5.2624
  32        5.2624
  33        5.5895
  34        5.8418
  35        5.8418
  36        5.8594
  37        5.8594
  38        5.8594
  39        5.8594
  40        6.1666
  41        6.1666
  42        6.1666
  43        6.1666
  44        6.4915
  45        6.4915
  46        6.9567
  47        6.9567
  48        7.2852
  49        7.2852
  50        7.2852
  51        7.2852
  52        7.6154
  53        7.6155
  54        7.6156
  55        7.6156
  56        7.6370
  57        7.6371
  58        7.7899
  59        7.7899
  60        7.7900
  61        7.7900
  62        7.8192
  63        7.8193
  64        7.8193
  65        7.8193
  66        8.4396
  67        8.4396
  68        8.4396
 
  0.1666667E+00  0.0000000E+00  0.0000000E+00  0.1157407E-02
   1       -3.4536
   2       -2.0606
   3       -1.3689
   4       -1.3688
   5       -1.3688
   6       -1.3688
   7       -0.6802
   8        0.0057
   9        0.0057
  10        0.0057
  11        0.0057
  12        0.6886
  13        0.6886
  14        0.6886
  15        0.6886
  16        1.3684
  17        1.3684
  18        1.3684
  19        1.3684
  20        2.0448
  21        2.0448
  22        2.0448
  23        2.0448
  24        3.3394
  25        3.3939
  26        3.3939
  27        3.3939
  28        3.3939
  29        4.2606
  30        4.2606
  31        5.3052
  32        5.3055
  33        5.3272
  34        5.3272
  35        5.3272
  36        5.3274
  37        5.5578
  38        5.5578
  39        6.2072
  40        6.2072
  41        6.2072
  42        6.2072
  43        6.2177
  44        6.6661
  45        6.6661
  46        6.8570
  47        6.8570
  48        7.2991
  49        7.2992
  50        7.2992
  51        7.2992
  52        7.3359
  53        7.3359
  54        7.3359
  55        7.3360
  56        7.5058
  57        7.5058
  58        7.5059
  59        7.5059
  60        8.0038
  61        8.0038
  62        8.2137
  63        8.2137
  64        8.2137
  65        8.2137
  66        8.6641
  67        8.6641
  68        8.6641
 
  0.2500000E+00  0.0000000E+00  0.0000000E+00  0.1157407E-02
   1       -3.3807
   2       -2.3353
   3       -1.2970
   4       -1.2970
   5       -1.2970
   6       -1.2970
   7       -0.2681
   8       -0.2654
   9       -0.2654
  10       -0.2654
  11       -0.2631
  12        0.7595
  13        0.7595
  14        0.7595
  15        0.7595
  16        1.7742
  17        1.7763
  18        1.7763
  19        1.7775
  20        1.7775
  21        1.7787
  22        1.7787
  23        1.7808
  24        2.7645
  25        3.7976
  26        3.7976
  27        3.7976
  28        3.7976
  29        4.3281
  30        4.3281
  31        4.7647
  32        4.7647
  33        4.7647
  34        4.7647
  35        5.3009
  36        5.3009
  37        5.3771
  38        5.3772
  39        6.2748
  40        6.2748
  41        6.2748
  42        6.2748
  43        6.3998
  44        6.3998
  45        6.7461
  46        6.7461
  47        6.7461
  48        6.7461
  49        6.9206
  50        7.2470
  51        7.2470
  52        7.2487
  53        7.2487
  54        7.2516
  55        7.2516
  56        7.4073
  57        7.4073
  58        7.4073
  59        7.4073
  60        8.3963
  61        8.3963
  62        8.4041
  63        8.4041
  64        8.4043
  65        8.4043
  66        8.8986
  67        8.8986
  68        8.8986
 
  0.3333333E+00  0.0000000E+00  0.0000000E+00  0.1157407E-02
   1       -3.2788
   2       -2.5815
   3       -1.1964
   4       -1.1964
   5       -1.1964
   6       -1.1964
   7       -0.5084
   8       -0.5084
   9       -0.5084
  10       -0.5084
  11        0.1757
  12        0.8588
  13        0.8588
  14        0.8588
  15        0.8588
  16        1.5378
  17        1.5378
  18        1.5378
  19        1.5378
  20        2.2010
  21        2.2134
  22        2.2134
  23        2.2134
  24        2.2135
  25        4.2107
  26        4.2107
  27        4.2108
  28        4.2108
  29        4.2280
  30        4.2280
  31        4.2280
  32        4.2280
  33        4.4226
  34        4.4226
  35        5.0711
  36        5.0711
  37        5.4773
  38        5.4773
  39        6.1600
  40        6.1601
  41        6.1999
  42        6.1999
  43        6.2000
  44        6.2001
  45        6.3694
  46        6.3694
  47        6.3695
  48        6.3695
  49        7.0187
  50        7.0187
  51        7.0187
  52        7.0187
  53        7.5053
  54        7.5053
  55        7.5053
  56        7.5053
  57        7.6631
  58        7.6699
  59        7.6699
  60        8.1704
  61        8.1704
  62        8.1704
  63        8.1704
  64        8.8119
  65        8.8119
  66        9.6196
  67        9.6219
  68        9.6226
 
  0.4166667E+00  0.0000000E+00  0.0000000E+00  0.1157407E-02
   1       -3.1478
   2       -2.7991
   3       -1.0672
   4       -1.0672
   5       -1.0672
   6       -1.0672
   7       -0.7231
   8       -0.7231
   9       -0.7231
  10       -0.7231
  11        0.6439
  12        0.9863
  13        0.9863
  14        0.9863
  15        0.9863
  16        1.3259
  17        1.3259
  18        1.3259
  19        1.3259
  20        1.6579
  21        2.6756
  22        2.6756
  23        2.6756
  24        2.6756
  25        3.6757
  26        3.6757
  27        3.6757
  28        3.6757
  29        4.5441
  30        4.5441
  31        4.6844
  32        4.6844
  33        4.6844
  34        4.6844
  35        4.8684
  36        4.8684
  37        5.6059
  38        5.6060
  39        5.6719
  40        5.6719
  41        5.6719
  42        5.6720
  43        5.9476
  44        5.9476
  45        6.4911
  46        6.4911
  47        6.4912
  48        6.4912
  49        6.8158
  50        6.8158
  51        6.8158
  52        6.8158
  53        7.6307
  54        7.6307
  55        7.6307
  56        7.6307
  57        7.9634
  58        7.9634
  59        7.9634
  60        7.9634
  61        8.1171
  62        8.1171
  63        8.4362
  64        9.0932
  65        9.0932
  66        9.2476
  67        9.2476
  68       10.0632
 
  0.5000000E+00  0.0000000E+00  0.0000000E+00  0.5787037E-03
   1       -2.9892
   2       -2.9866
   3       -0.9131
   4       -0.9102
   5       -0.9102
   6       -0.9095
   7       -0.9093
   8       -0.9086
   9       -0.9086
  10       -0.9057
  11        1.1354
  12        1.1384
  13        1.1409
  14        1.1409
  15        1.1410
  16        1.1417
  17        1.1424
  18        1.1432
  19        1.1432
  20        1.1458
  21        3.1620
  22        3.1626
  23        3.1626
  24        3.1632
  25        3.1635
  26        3.1641
  27        3.1641
  28        3.1647
  29        4.6913
  30        4.6913
  31        4.6941
  32        4.6941
  33        5.1650
  34        5.1650
  35        5.1657
  36        5.1657
  37        5.1664
  38        5.1665
  39        5.1672
  40        5.1672
  41        5.7611
  42        5.7619
  43        5.7637
  44        5.7645
  45        6.6377
  46        6.6377
  47        6.6387
  48        6.6399
  49        6.6400
  50        6.6412
  51        6.6421
  52        6.6421
  53        7.7812
  54        7.7825
  55        7.7825
  56        7.7826
  57        7.7844
  58        7.7844
  59        7.7844
  60        7.7857
  61        8.5904
  62        8.5904
  63        8.5927
  64        8.5927
  65        9.2355
  66        9.2371
  67        9.7000
  68        9.7007
 
  0.0000000E+00  0.8333333E-01  0.0000000E+00  0.2314815E-02
   1       -3.4973
   2       -1.7576
   3       -1.4147
   4       -1.4120
   5       -1.4120
   6       -1.4093
   7       -1.0672
   8        0.3021
   9        0.3048
  10        0.3048
  11        0.3075
  12        0.6439
  13        0.6450
  14        0.6470
  15        0.6481
  16        0.9837
  17        0.9864
  18        0.9864
  19        0.9891
  20        2.3367
  21        2.3378
  22        2.3398
  23        2.3409
  24        3.0159
  25        3.0169
  26        3.0190
  27        3.0201
  28        3.8908
  29        4.2201
  30        4.2201
  31        5.2624
  32        5.2624
  33        5.5895
  34        5.8416
  35        5.8418
  36        5.8566
  37        5.8593
  38        5.8594
  39        5.8624
  40        6.1641
  41        6.1666
  42        6.1666
  43        6.1691
  44        6.4915
  45        6.4915
  46        6.9567
  47        6.9567
  48        7.2831
  49        7.2852
  50        7.2853
  51        7.2874
  52        7.6135
  53        7.6155
  54        7.6156
  55        7.6176
  56        7.6370
  57        7.6370
  58        7.7874
  59        7.7899
  60        7.7900
  61        7.7925
  62        7.8167
  63        7.8183
  64        7.8202
  65        7.8218
  66        8.4379
  67        8.4396
  68        8.4413
 
  0.8333333E-01  0.8333333E-01  0.0000000E+00  0.4629630E-02
   1       -3.4827
   2       -1.7443
   3       -1.7421
   4       -1.3976
   5       -1.3976
   6       -1.0539
   7       -1.0517
   8       -0.0228
   9        0.3175
  10        0.3184
  11        0.3197
  12        0.3206
  13        0.6596
  14        0.6607
  15        0.9990
  16        0.9999
  17        1.0012
  18        1.0021
  19        1.3403
  20        2.0166
  21        2.0166
  22        2.6490
  23        2.6490
  24        2.7364
  25        2.7364
  26        3.3662
  27        3.3662
  28        3.9041
  29        3.9050
  30        4.2336
  31        5.2768
  32        5.5446
  33        5.5467
  34        5.6032
  35        5.6041
  36        5.8541
  37        5.8565
  38        5.8658
  39        5.8659
  40        5.8804
  41        5.8805
  42        6.1992
  43        6.2005
  44        6.5038
  45        6.5062
  46        6.9733
  47        6.9752
  48        7.2728
  49        7.2743
  50        7.4787
  51        7.5053
  52        7.5062
  53        7.5075
  54        7.5084
  55        7.5564
  56        7.5564
  57        7.6545
  58        7.6560
  59        7.6766
  60        7.6767
  61        7.9488
  62        7.9507
  63        8.1275
  64        8.1293
  65        8.1573
  66        8.1584
  67        8.1586
  68        8.1596
 
  0.1666667E+00  0.8333333E-01  0.0000000E+00  0.4629630E-02
   1       -3.4390
   2       -2.0462
   3       -1.7000
   4       -1.3545
   5       -1.3545
   6       -1.0098
   7       -0.6659
   8       -0.3225
   9        0.0200
  10        0.0200
  11        0.3611
  12        0.3617
  13        0.3623
  14        1.0423
  15        1.0431
  16        1.0436
  17        1.3825
  18        1.3826
  19        1.7207
  20        1.7211
  21        1.7218
  22        2.3951
  23        2.3951
  24        3.0735
  25        3.0735
  26        3.3533
  27        3.7423
  28        3.7423
  29        3.9456
  30        4.2741
  31        5.0109
  32        5.2590
  33        5.3197
  34        5.3409
  35        5.3410
  36        5.5713
  37        5.6460
  38        5.6703
  39        5.8959
  40        5.9142
  41        5.9142
  42        6.2317
  43        6.5456
  44        6.5633
  45        6.6862
  46        6.8706
  47        6.9853
  48        6.9854
  49        6.9895
  50        7.0180
  51        7.1945
  52        7.2214
  53        7.2214
  54        7.6395
  55        7.6397
  56        7.6523
  57        7.6525
  58        7.6687
  59        7.8443
  60        7.9117
  61        8.0183
  62        8.2289
  63        8.2289
  64        8.3160
  65        8.3501
  66        8.4941
  67        8.5244
  68        8.5271
 
  0.2500000E+00  0.8333333E-01  0.0000000E+00  0.4629630E-02
   1       -3.3661
   2       -2.3209
   3       -1.6279
   4       -1.2826
   5       -1.2826
   6       -0.9381
   7       -0.5942
   8       -0.2531
   9       -0.2512
  10       -0.2496
  11        0.0912
  12        0.4328
  13        0.4328
  14        1.1138
  15        1.1138
  16        1.4512
  17        1.4530
  18        1.4547
  19        1.7916
  20        1.7916
  21        2.1277
  22        2.1293
  23        2.1313
  24        2.7785
  25        3.4771
  26        3.4771
  27        4.0141
  28        4.1454
  29        4.1454
  30        4.3416
  31        4.4467
  32        4.7786
  33        4.7786
  34        4.9994
  35        5.1097
  36        5.3144
  37        5.3915
  38        5.7167
  39        5.9635
  40        5.9823
  41        5.9823
  42        6.4134
  43        6.4309
  44        6.4310
  45        6.6132
  46        6.7264
  47        6.9344
  48        6.9374
  49        6.9614
  50        6.9630
  51        6.9656
  52        7.0879
  53        7.0879
  54        7.0885
  55        7.2634
  56        7.5872
  57        7.7243
  58        7.7243
  59        7.7504
  60        8.0889
  61        8.4105
  62        8.5887
  63        8.7067
  64        8.7144
  65        8.7146
  66        8.7442
  67        8.8891
  68        8.9144
 
  0.3333333E+00  0.8333333E-01  0.0000000E+00  0.4629630E-02
   1       -3.2642
   2       -2.5671
   3       -1.5271
   4       -1.1820
   5       -1.1820
   6       -0.8383
   7       -0.8372
   8       -0.4941
   9       -0.4941
  10       -0.1513
  11        0.1899
  12        0.5323
  13        0.5323
  14        1.2121
  15        1.2124
  16        1.2132
  17        1.2135
  18        1.8893
  19        1.8903
  20        1.8906
  21        2.2150
  22        2.2275
  23        2.2275
  24        2.5646
  25        3.8913
  26        3.9080
  27        3.9080
  28        4.1100
  29        4.2247
  30        4.2247
  31        4.4361
  32        4.5573
  33        4.5750
  34        4.5750
  35        4.7670
  36        5.0846
  37        5.4917
  38        5.8155
  39        5.8837
  40        5.8837
  41        6.0582
  42        6.0778
  43        6.0778
  44        6.1742
  45        6.4895
  46        6.5430
  47        6.5431
  48        6.7068
  49        6.7085
  50        6.7316
  51        6.7316
  52        7.1866
  53        7.3572
  54        7.3845
  55        7.6769
  56        7.6834
  57        7.8218
  58        7.8218
  59        7.8492
  60        7.8542
  61        8.4821
  62        8.4821
  63        8.5117
  64        8.8257
  65        9.1209
  66        9.3077
  67        9.3216
  68        9.3350
 
  0.4166667E+00  0.8333333E-01  0.0000000E+00  0.4629630E-02
   1       -3.1333
   2       -2.7846
   3       -1.3977
   4       -1.0541
   5       -1.0528
   6       -1.0516
   7       -0.7101
   8       -0.7088
   9       -0.7075
  10       -0.3655
  11        0.6575
  12        0.6601
  13        0.6607
  14        1.0004
  15        1.0004
  16        1.3401
  17        1.3401
  18        1.6717
  19        1.6790
  20        1.6792
  21        2.3527
  22        2.6896
  23        2.6896
  24        3.0257
  25        3.3550
  26        3.6897
  27        3.6897
  28        4.0236
  29        4.2333
  30        4.3652
  31        4.3652
  32        4.5577
  33        4.5618
  34        4.8819
  35        5.0306
  36        5.0306
  37        5.3546
  38        5.3546
  39        5.6202
  40        5.9423
  41        5.9618
  42        6.0161
  43        6.0162
  44        6.1799
  45        6.2004
  46        6.2004
  47        6.2796
  48        6.5045
  49        6.5274
  50        6.5274
  51        6.8296
  52        7.1543
  53        7.3123
  54        7.6464
  55        7.8319
  56        7.9463
  57        7.9463
  58        7.9743
  59        8.1306
  60        8.2766
  61        8.2766
  62        8.3057
  63        8.4499
  64        8.8042
  65        9.1068
  66        9.2612
  67        9.5554
  68        9.7607
 
  0.5000000E+00  0.8333333E-01  0.0000000E+00  0.2314815E-02
   1       -2.9747
   2       -2.9720
   3       -1.2409
   4       -1.2382
   5       -0.8970
   6       -0.8958
   7       -0.8943
   8       -0.8932
   9       -0.5527
  10       -0.5500
  11        0.8142
  12        0.8154
  13        0.8169
  14        0.8180
  15        1.1517
  16        1.1532
  17        1.4936
  18        1.4948
  19        1.4963
  20        1.4974
  21        2.8408
  22        2.8423
  23        3.1766
  24        3.1766
  25        3.1781
  26        3.1781
  27        3.5117
  28        3.5131
  29        4.3825
  30        4.3853
  31        4.7048
  32        4.7076
  33        4.8470
  34        4.8471
  35        4.8485
  36        4.8486
  37        5.5105
  38        5.5106
  39        5.5120
  40        5.5121
  41        5.7758
  42        5.7783
  43        6.0958
  44        6.0984
  45        6.3272
  46        6.3301
  47        6.3482
  48        6.3496
  49        6.3510
  50        6.3524
  51        6.9770
  52        6.9798
  53        7.4644
  54        7.4669
  55        8.0962
  56        8.0970
  57        8.0988
  58        8.0996
  59        8.1252
  60        8.1278
  61        8.3043
  62        8.3063
  63        8.6040
  64        8.6062
  65        9.2491
  66        9.2507
  67        9.7134
  68        9.7141
 
  0.0000000E+00  0.1666667E+00  0.0000000E+00  0.2314815E-02
   1       -3.4536
   2       -2.0606
   3       -1.3715
   4       -1.3688
   5       -1.3688
   6       -1.3662
   7       -0.6802
   8        0.0030
   9        0.0057
  10        0.0057
  11        0.0084
  12        0.6865
  13        0.6876
  14        0.6896
  15        0.6907
  16        1.3657
  17        1.3684
  18        1.3684
  19        1.3711
  20        2.0427
  21        2.0438
  22        2.0458
  23        2.0469
  24        3.3394
  25        3.3918
  26        3.3929
  27        3.3949
  28        3.3960
  29        4.2606
  30        4.2606
  31        5.3054
  32        5.3055
  33        5.3243
  34        5.3272
  35        5.3272
  36        5.3300
  37        5.5578
  38        5.5579
  39        6.2046
  40        6.2071
  41        6.2072
  42        6.2097
  43        6.2178
  44        6.6661
  45        6.6661
  46        6.8571
  47        6.8571
  48        7.2969
  49        7.2982
  50        7.3003
  51        7.3016
  52        7.3339
  53        7.3359
  54        7.3359
  55        7.3379
  56        7.5033
  57        7.5058
  58        7.5059
  59        7.5084
  60        8.0038
  61        8.0038
  62        8.2112
  63        8.2137
  64        8.2137
  65        8.2161
  66        8.6628
  67        8.6641
  68        8.6652
 
  0.8333333E-01  0.1666667E+00  0.0000000E+00  0.4629630E-02
   1       -3.4390
   2       -2.0462
   3       -1.7000
   4       -1.3545
   5       -1.3545
   6       -1.0098
   7       -0.6659
   8       -0.3226
   9        0.0199
  10        0.0200
  11        0.3603
  12        0.3617
  13        0.3631
  14        1.0416
  15        1.0431
  16        1.0444
  17        1.3826
  18        1.3826
  19        1.7207
  20        1.7211
  21        1.7218
  22        2.3951
  23        2.3951
  24        3.0735
  25        3.0735
  26        3.3533
  27        3.7423
  28        3.7423
  29        3.9456
  30        4.2741
  31        5.0109
  32        5.2589
  33        5.3198
  34        5.3409
  35        5.3409
  36        5.5713
  37        5.6460
  38        5.6703
  39        5.8959
  40        5.9142
  41        5.9143
  42        6.2317
  43        6.5456
  44        6.5633
  45        6.6862
  46        6.8706
  47        6.9854
  48        6.9854
  49        6.9895
  50        7.0180
  51        7.1945
  52        7.2215
  53        7.2215
  54        7.6398
  55        7.6398
  56        7.6522
  57        7.6523
  58        7.6688
  59        7.8443
  60        7.9117
  61        8.0183
  62        8.2289
  63        8.2289
  64        8.3159
  65        8.3501
  66        8.4940
  67        8.5244
  68        8.5260
 
  0.1666667E+00  0.1666667E+00  0.0000000E+00  0.4629630E-02
   1       -3.3953
   2       -2.0040
   3       -2.0018
   4       -1.3114
   5       -1.3113
   6       -0.6247
   7       -0.6229
   8       -0.6212
   9        0.0612
  10        0.0621
  11        0.0633
  12        0.0642
  13        0.7446
  14        0.7457
  15        1.4225
  16        1.4237
  17        1.4248
  18        1.4249
  19        1.4260
  20        1.4273
  21        2.1017
  22        2.7353
  23        2.7353
  24        2.8179
  25        2.8179
  26        3.3944
  27        3.3954
  28        4.1179
  29        4.1179
  30        4.3146
  31        4.7206
  32        4.7229
  33        5.3627
  34        5.3740
  35        5.3741
  36        5.3906
  37        5.3906
  38        5.6107
  39        5.6131
  40        6.0391
  41        6.0403
  42        6.2731
  43        6.2741
  44        6.6968
  45        6.6978
  46        6.6992
  47        6.7000
  48        6.7246
  49        6.7265
  50        6.9087
  51        6.9109
  52        6.9131
  53        7.5973
  54        7.5986
  55        8.0058
  56        8.0069
  57        8.0069
  58        8.0080
  59        8.0614
  60        8.0635
  61        8.0649
  62        8.2086
  63        8.2102
  64        8.2108
  65        8.2116
  66        8.3179
  67        8.3179
  68        8.9167
 
  0.2500000E+00  0.1666667E+00  0.0000000E+00  0.4629630E-02
   1       -3.3224
   2       -2.2775
   3       -1.9307
   4       -1.2395
   5       -1.2395
   6       -0.8951
   7       -0.5515
   8       -0.2103
   9       -0.2083
  10       -0.2068
  11        0.1339
  12        0.1339
  13        0.4753
  14        1.1542
  15        1.1561
  16        1.1577
  17        1.4955
  18        1.4955
  19        1.8339
  20        1.8339
  21        2.5064
  22        2.5076
  23        2.5102
  24        2.8204
  25        3.1846
  26        3.1846
  27        3.4642
  28        4.1558
  29        4.3821
  30        4.4598
  31        4.5202
  32        4.5202
  33        4.8200
  34        4.8200
  35        5.3550
  36        5.4344
  37        5.4511
  38        5.4511
  39        5.4814
  40        5.6795
  41        6.1428
  42        6.1428
  43        6.3434
  44        6.4158
  45        6.4386
  46        6.4386
  47        6.4792
  48        6.6532
  49        6.7955
  50        6.9760
  51        6.9788
  52        7.3040
  53        7.3409
  54        7.4563
  55        7.4563
  56        7.7995
  57        7.9528
  58        8.1053
  59        8.3173
  60        8.3285
  61        8.3285
  62        8.4003
  63        8.4003
  64        8.4526
  65        8.6025
  66        8.9550
  67        8.9550
  68        9.1086
 
  0.3333333E+00  0.1666667E+00  0.0000000E+00  0.4629630E-02
   1       -3.2206
   2       -2.5236
   3       -1.8298
   4       -1.1403
   5       -1.1390
   6       -1.1377
   7       -0.4526
   8       -0.4512
   9       -0.4500
  10        0.2311
  11        0.2334
  12        0.2336
  13        0.2351
  14        0.9153
  15        0.9153
  16        1.5931
  17        1.5944
  18        1.5947
  19        2.2570
  20        2.2682
  21        2.2689
  22        2.2707
  23        2.2715
  24        2.9429
  25        3.5611
  26        3.5991
  27        3.6155
  28        3.6156
  29        4.2251
  30        4.2663
  31        4.2663
  32        4.4766
  33        4.9306
  34        4.9490
  35        4.9490
  36        5.1252
  37        5.5345
  38        5.5472
  39        5.5472
  40        5.5945
  41        5.5945
  42        5.7741
  43        6.2058
  44        6.2058
  45        6.2160
  46        6.4232
  47        6.4410
  48        6.8620
  49        6.8938
  50        6.9127
  51        6.9127
  52        7.0735
  53        7.1071
  54        7.5639
  55        7.7181
  56        7.7217
  57        7.7251
  58        8.2164
  59        8.4265
  60        8.4265
  61        8.8038
  62        8.8197
  63        8.8198
  64        8.8669
  65        8.8773
  66        9.0222
  67        9.0351
  68        9.0819
 
  0.4166667E+00  0.1666667E+00  0.0000000E+00  0.4629630E-02
   1       -3.0896
   2       -2.7411
   3       -1.7000
   4       -1.3545
   5       -1.0098
   6       -1.0098
   7       -0.6658
   8       -0.6658
   9       -0.3228
  10        0.0197
  11        0.3616
  12        0.3616
  13        0.6999
  14        0.7026
  15        0.7033
  16        1.7139
  17        1.7213
  18        1.7216
  19        2.0573
  20        2.0593
  21        2.0594
  22        2.7316
  23        2.7316
  24        3.0616
  25        3.4029
  26        3.6858
  27        3.7314
  28        3.7315
  29        4.0178
  30        4.0733
  31        4.0733
  32        4.3983
  33        4.5982
  34        4.9224
  35        5.0644
  36        5.0644
  37        5.4035
  38        5.4035
  39        5.6630
  40        5.6708
  41        5.6708
  42        5.8958
  43        6.0002
  44        6.0002
  45        6.0042
  46        6.2203
  47        6.3869
  48        6.3870
  49        6.5664
  50        6.8997
  51        7.0199
  52        7.1952
  53        7.3102
  54        7.3552
  55        7.5199
  56        8.1712
  57        8.2826
  58        8.3421
  59        8.4909
  60        8.5502
  61        8.5502
  62        8.6722
  63        8.8779
  64        8.8779
  65        9.1473
  66        9.2647
  67        9.2647
  68        9.3019
 
  0.5000000E+00  0.1666667E+00  0.0000000E+00  0.2314815E-02
   1       -2.9311
   2       -2.9284
   3       -1.5429
   4       -1.5403
   5       -0.8540
   6       -0.8528
   7       -0.8513
   8       -0.8502
   9       -0.1670
  10       -0.1644
  11        0.5161
  12        0.5172
  13        0.5187
  14        0.5198
  15        1.1941
  16        1.1956
  17        1.8744
  18        1.8755
  19        1.8771
  20        1.8782
  21        2.5464
  22        2.5479
  23        3.2185
  24        3.2185
  25        3.2200
  26        3.2200
  27        3.8367
  28        3.8394
  29        3.8877
  30        3.8892
  31        4.5559
  32        4.5560
  33        4.5574
  34        4.5574
  35        4.7454
  36        4.7482
  37        5.8183
  38        5.8199
  39        5.8209
  40        5.8211
  41        5.8226
  42        5.8239
  43        5.8825
  44        5.8826
  45        5.8840
  46        5.8840
  47        6.0431
  48        6.0460
  49        6.7180
  50        6.7206
  51        7.1725
  52        7.1751
  53        7.3426
  54        7.3454
  55        7.7832
  56        7.7850
  57        8.4925
  58        8.4951
  59        8.6445
  60        8.6468
  61        8.6989
  62        8.6998
  63        8.7016
  64        8.7024
  65        9.2897
  66        9.2913
  67        9.7351
  68        9.7386
 
  0.0000000E+00  0.2500000E+00  0.0000000E+00  0.2314815E-02
   1       -3.3807
   2       -2.3353
   3       -1.2997
   4       -1.2970
   5       -1.2970
   6       -1.2943
   7       -0.2683
   8       -0.2658
   9       -0.2654
  10       -0.2654
  11       -0.2626
  12        0.7574
  13        0.7585
  14        0.7605
  15        0.7616
  16        1.7742
  17        1.7760
  18        1.7763
  19        1.7775
  20        1.7775
  21        1.7787
  22        1.7791
  23        1.7809
  24        2.7645
  25        3.7954
  26        3.7965
  27        3.7986
  28        3.7997
  29        4.3281
  30        4.3281
  31        4.7619
  32        4.7647
  33        4.7647
  34        4.7675
  35        5.3009
  36        5.3009
  37        5.3771
  38        5.3772
  39        6.2722
  40        6.2748
  41        6.2748
  42        6.2773
  43        6.3998
  44        6.3998
  45        6.7438
  46        6.7450
  47        6.7471
  48        6.7483
  49        6.9206
  50        7.2459
  51        7.2487
  52        7.2488
  53        7.2496
  54        7.2499
  55        7.2519
  56        7.4053
  57        7.4073
  58        7.4073
  59        7.4092
  60        8.3964
  61        8.3965
  62        8.4022
  63        8.4041
  64        8.4041
  65        8.4060
  66        8.8962
  67        8.8986
  68        8.8990
 