 vasp.4.6.28 25Jul05 complex 
 executed on             LinuxIFC date 2016.11.12  02:09:26
 running on    4 nodes
 distr:  one band on    1 nodes,    4 groups


--------------------------------------------------------------------------------------------------------


 INCAR:
 POTCAR:   PAW_PBE Al 04Jan2001                   
 POTCAR:   PAW_PBE Al 04Jan2001                   
   VRHFIN =Al: s2p1                                                             
   LEXCH  = PE                                                                  
   EATOM  =    53.5387 eV,    3.9350 Ry                                         
                                                                                
   TITEL  = PAW_PBE Al 04Jan2001                                                
   LULTRA =        F    use ultrasoft PP ?                                      
   IUNSCR =        1    unscreen: 0-lin 1-nonlin 2-no                           
   RPACOR =    1.500    partial core radius                                     
   POMASS =   26.982; ZVAL   =    3.000    mass and valenz                      
   RCORE  =    1.900    outmost cutoff radius                                   
   RWIGS  =    2.650; RWIGS  =    1.402    wigner-seitz radius (au A)           
   ENMAX  =  240.300; ENMIN  =  180.225 eV                                      
   ICORE  =        2    local potential                                         
   LCOR   =        T    correct aug charges                                     
   LPAW   =        T    paw PP                                                  
   EAUG   =  291.052                                                            
   DEXC   =    -.041                                                            
   RMAX   =    2.974    core radius for proj-oper                               
   RAUG   =    1.300    factor for augmentation sphere                          
   RDEP   =    1.966    radius for radial grids                                 
   QCUT   =   -4.203; QGAM   =    8.405    optimization parameters              
                                                                                
   Description                                                                  
     l     E      TYP  RCUT    TYP  RCUT                                        
     0   .000     23  1.900                                                     
     0   .000     23  1.900                                                     
     1   .000     23  1.900                                                     
     1  1.000     23  1.900                                                     
     2   .000      7  1.900                                                     
  local pseudopotential read in
  partial core-charges read in
  atomic valenz-charges read in
  non local Contribution for L=           0  read in
    real space projection operators read in
  non local Contribution for L=           0  read in
    real space projection operators read in
  non local Contribution for L=           1  read in
    real space projection operators read in
  non local Contribution for L=           1  read in
    real space projection operators read in
    PAW grid and wavefunctions read in
 
   number of l-projection  operators is LMAX  =           4
   number of lm-projection operators is LMMAX =           8
 

 ----------------------------------------------------------------------------- 
|                                                                             |
|  ADVICE TO THIS USER RUNNING 'VASP/VAMP'   (HEAR YOUR MASTER'S VOICE ...):  |
|                                                                             |
|      You have a (more or less) 'large supercell' and for larger cells       |
|      it might be more efficient to use real space projection operators      |
|      So try LREAL= Auto  in the INCAR   file.                               |
|      Mind: If you want to do an extremely accurate calculations keep the    |
|      reciprocal projection scheme          (i.e. LREAL=.FALSE.)             |
|                                                                             |
 ----------------------------------------------------------------------------- 

 PAW_PBE Al 04Jan2001                   :
 energy of atom  1       EATOM=  -53.5387
 kinetic energy error for atom=    0.0001 (will be added to EATOM!!)
 
 EXHCAR: internal setup
 exchange correlation table for  LEXCH =        8
   RHO(1)=    0.500       N(1)  =     2000
   RHO(2)=  100.500       N(2)  =     4000
 
 POSCAR: Al                                      
  positions in direct lattice
  No initial velocities read in
 


--------------------------------------------------------------------------------------------------------


 ion  position               nearest neighbor table
   1  0.251  0.250  0.000-  18 2.96  22 2.96  26 2.96  28 2.96   9 2.97  11 2.97  13 2.97  15 2.97
                            25 2.98  21 2.98  27 2.98  17 2.98
   2  0.750  0.250  0.000-  10 2.97  12 2.97  14 2.97  16 2.97  17 2.97  18 2.97  21 2.97  22 2.97
                            25 2.97  26 2.97  27 2.97  28 2.97
   3  0.250  0.750  0.000-   9 2.97  11 2.97  13 2.97  15 2.97  19 2.97  20 2.97  23 2.97  24 2.97
                            25 2.97  26 2.97  27 2.97  28 2.97
   4  0.750  0.750  0.000-  10 2.97  12 2.97  14 2.97  16 2.97  19 2.97  20 2.97  23 2.97  24 2.97
                            25 2.97  26 2.97  27 2.97  28 2.97
   5  0.250  0.250  0.500-   9 2.97  11 2.97  13 2.97  15 2.97  17 2.97  18 2.97  21 2.97  22 2.97
                            29 2.97  30 2.97  31 2.97  32 2.97
   6  0.750  0.250  0.500-  10 2.97  12 2.97  14 2.97  16 2.97  17 2.97  18 2.97  21 2.97  22 2.97
                            29 2.97  30 2.97  31 2.97  32 2.97
   7  0.250  0.750  0.500-   9 2.97  11 2.97  13 2.97  15 2.97  19 2.97  20 2.97  23 2.97  24 2.97
                            29 2.97  30 2.97  31 2.97  32 2.97
   8  0.750  0.750  0.500-  10 2.97  12 2.97  14 2.97  16 2.97  19 2.97  20 2.97  23 2.97  24 2.97
                            29 2.97  30 2.97  31 2.97  32 2.97
   9  0.250  0.000  0.250-   3 2.97   5 2.97   7 2.97  17 2.97  18 2.97  19 2.97  20 2.97  25 2.97
                            26 2.97  29 2.97  30 2.97   1 2.97
  10  0.750  0.000  0.250-   2 2.97   4 2.97   6 2.97   8 2.97  17 2.97  18 2.97  19 2.97  20 2.97
                            25 2.97  26 2.97  29 2.97  30 2.97
  11  0.250  0.500  0.250-   3 2.97   5 2.97   7 2.97  17 2.97  18 2.97  19 2.97  20 2.97  27 2.97
                            28 2.97  31 2.97  32 2.97   1 2.97
  12  0.750  0.500  0.250-   2 2.97   4 2.97   6 2.97   8 2.97  17 2.97  18 2.97  19 2.97  20 2.97
                            27 2.97  28 2.97  31 2.97  32 2.97
  13  0.250  0.000  0.750-   3 2.97   5 2.97   7 2.97  21 2.97  22 2.97  23 2.97  24 2.97  25 2.97
                            26 2.97  29 2.97  30 2.97   1 2.97
  14  0.750  0.000  0.750-   2 2.97   4 2.97   6 2.97   8 2.97  21 2.97  22 2.97  23 2.97  24 2.97
                            25 2.97  26 2.97  29 2.97  30 2.97
  15  0.250  0.500  0.750-   3 2.97   5 2.97   7 2.97  21 2.97  22 2.97  23 2.97  24 2.97  27 2.97
                            28 2.97  31 2.97  32 2.97   1 2.97
  16  0.750  0.500  0.750-   2 2.97   4 2.97   6 2.97   8 2.97  21 2.97  22 2.97  23 2.97  24 2.97
                            27 2.97  28 2.97  31 2.97  32 2.97
  17  0.000  0.250  0.250-   2 2.97   5 2.97   6 2.97   9 2.97  10 2.97  11 2.97  12 2.97  25 2.97
                            27 2.97  29 2.97  31 2.97   1 2.98
  18  0.500  0.250  0.250-   1 2.96   2 2.97   5 2.97   6 2.97   9 2.97  10 2.97  11 2.97  12 2.97
                            26 2.97  28 2.97  30 2.97  32 2.97
  19  0.000  0.750  0.250-   3 2.97   4 2.97   7 2.97   8 2.97   9 2.97  10 2.97  11 2.97  12 2.97
                            25 2.97  27 2.97  29 2.97  31 2.97
  20  0.500  0.750  0.250-   3 2.97   4 2.97   7 2.97   8 2.97   9 2.97  10 2.97  11 2.97  12 2.97
                            26 2.97  28 2.97  30 2.97  32 2.97
  21  0.000  0.250  0.750-   2 2.97   5 2.97   6 2.97  13 2.97  14 2.97  15 2.97  16 2.97  25 2.97
                            27 2.97  29 2.97  31 2.97   1 2.98
  22  0.500  0.250  0.750-   1 2.96   2 2.97   5 2.97   6 2.97  13 2.97  14 2.97  15 2.97  16 2.97
                            26 2.97  28 2.97  30 2.97  32 2.97
  23  0.000  0.750  0.750-   3 2.97   4 2.97   7 2.97   8 2.97  13 2.97  14 2.97  15 2.97  16 2.97
                            25 2.97  27 2.97  29 2.97  31 2.97
  24  0.500  0.750  0.750-   3 2.97   4 2.97   7 2.97   8 2.97  13 2.97  14 2.97  15 2.97  16 2.97
                            26 2.97  28 2.97  30 2.97  32 2.97
  25  0.000  0.000  0.000-   2 2.97   3 2.97   4 2.97   9 2.97  10 2.97  13 2.97  14 2.97  17 2.97
                            19 2.97  21 2.97  23 2.97   1 2.98
  26  0.500  0.000  0.000-   1 2.96   2 2.97   3 2.97   4 2.97   9 2.97  10 2.97  13 2.97  14 2.97
                            18 2.97  20 2.97  22 2.97  24 2.97
  27  0.000  0.500  0.000-   2 2.97   3 2.97   4 2.97  11 2.97  12 2.97  15 2.97  16 2.97  17 2.97
                            19 2.97  21 2.97  23 2.97   1 2.98
  28  0.500  0.500  0.000-   1 2.96   2 2.97   3 2.97   4 2.97  11 2.97  12 2.97  15 2.97  16 2.97
                            18 2.97  20 2.97  22 2.97  24 2.97
  29  0.000  0.000  0.500-   5 2.97   6 2.97   7 2.97   8 2.97   9 2.97  10 2.97  13 2.97  14 2.97
                            17 2.97  19 2.97  21 2.97  23 2.97
  30  0.500  0.000  0.500-   5 2.97   6 2.97   7 2.97   8 2.97   9 2.97  10 2.97  13 2.97  14 2.97
                            18 2.97  20 2.97  22 2.97  24 2.97
  31  0.000  0.500  0.500-   5 2.97   6 2.97   7 2.97   8 2.97  11 2.97  12 2.97  15 2.97  16 2.97
                            17 2.97  19 2.97  21 2.97  23 2.97
  32  0.500  0.500  0.500-   5 2.97   6 2.97   7 2.97   8 2.97  11 2.97  12 2.97  15 2.97  16 2.97
                            18 2.97  20 2.97  22 2.97  24 2.97
 
  LATTYP: Found a simple cubic cell.
 ALAT       =     8.3975972489
  
  Lattice vectors:
  
 A1 = (   8.3975972489,   0.0000000000,   0.0000000000)
 A2 = (   0.0000000000,   8.3975972489,   0.0000000000)
 A3 = (   0.0000000000,   0.0000000000,   8.3975972489)
 Subroutine PRICEL returns:
 Original cell was already a primitive cell.
 

Analysis of symmetry for initial positions (statically):

 Routine SETGRP: Setting up the symmetry group for a 
 simple cubic supercell.


 Subroutine GETGRP returns: Found  8 space group operations
 (whereof  2 operations were pure point group operations)
 out of a pool of 48 trial point group operations.


The static configuration has the point symmetry C_1h.
 The point group associated with its full space group is C_4v.

Analysis of symmetry for dynamics (positions and initial velocities):

 Subroutine DYNSYM returns: Found  8 space group operations
 (whereof  2 operations were pure point group operations)
 out of a pool of  8 trial space group operations
 (whereof  2 operations were pure point group operations)
 and found also     1 'primitive' translations


The dynamic configuration has the point symmetry C_1h.
 The point group associated with its full space group is C_4v.
 
 
 KPOINTS: Automatic mesh                          

Automatic generation of k-mesh.
 
 Subroutine IBZKPT returns following result:
 ===========================================
 
 Found    196 irreducible k-points:
 
 Following reciprocal coordinates:
            Coordinates               Weight
  0.000000  0.000000  0.000000      1.000000
  0.083333  0.000000  0.000000      2.000000
  0.166667  0.000000  0.000000      2.000000
  0.250000  0.000000  0.000000      2.000000
  0.333333  0.000000  0.000000      2.000000
  0.416667  0.000000  0.000000      2.000000
  0.500000  0.000000  0.000000      1.000000
  0.000000  0.083333  0.000000      4.000000
  0.083333  0.083333  0.000000      8.000000
  0.166667  0.083333  0.000000      8.000000
  0.250000  0.083333  0.000000      8.000000
  0.333333  0.083333  0.000000      8.000000
  0.416667  0.083333  0.000000      8.000000
  0.500000  0.083333  0.000000      4.000000
  0.000000  0.166667  0.000000      4.000000
  0.083333  0.166667  0.000000      8.000000
  0.166667  0.166667  0.000000      8.000000
  0.250000  0.166667  0.000000      8.000000
  0.333333  0.166667  0.000000      8.000000
  0.416667  0.166667  0.000000      8.000000
  0.500000  0.166667  0.000000      4.000000
  0.000000  0.250000  0.000000      4.000000
  0.083333  0.250000  0.000000      8.000000
  0.166667  0.250000  0.000000      8.000000
  0.250000  0.250000  0.000000      8.000000
  0.333333  0.250000  0.000000      8.000000
  0.416667  0.250000  0.000000      8.000000
  0.500000  0.250000  0.000000      4.000000
  0.000000  0.333333  0.000000      4.000000
  0.083333  0.333333  0.000000      8.000000
  0.166667  0.333333  0.000000      8.000000
  0.250000  0.333333  0.000000      8.000000
  0.333333  0.333333  0.000000      8.000000
  0.416667  0.333333  0.000000      8.000000
  0.500000  0.333333  0.000000      4.000000
  0.000000  0.416667  0.000000      4.000000
  0.083333  0.416667  0.000000      8.000000
  0.166667  0.416667  0.000000      8.000000
  0.250000  0.416667  0.000000      8.000000
  0.333333  0.416667  0.000000      8.000000
  0.416667  0.416667  0.000000      8.000000
  0.500000  0.416667  0.000000      4.000000
  0.000000  0.500000  0.000000      2.000000
  0.083333  0.500000  0.000000      4.000000
  0.166667  0.500000  0.000000      4.000000
  0.250000  0.500000  0.000000      4.000000
  0.333333  0.500000  0.000000      4.000000
  0.416667  0.500000  0.000000      4.000000
  0.500000  0.500000  0.000000      2.000000
  0.000000  0.083333  0.083333      4.000000
  0.083333  0.083333  0.083333      8.000000
  0.166667  0.083333  0.083333      8.000000
  0.250000  0.083333  0.083333      8.000000
  0.333333  0.083333  0.083333      8.000000
  0.416667  0.083333  0.083333      8.000000
  0.500000  0.083333  0.083333      4.000000
  0.000000  0.166667  0.083333      8.000000
  0.083333  0.166667  0.083333     16.000000
  0.166667  0.166667  0.083333     16.000000
  0.250000  0.166667  0.083333     16.000000
  0.333333  0.166667  0.083333     16.000000
  0.416667  0.166667  0.083333     16.000000
  0.500000  0.166667  0.083333      8.000000
  0.000000  0.250000  0.083333      8.000000
  0.083333  0.250000  0.083333     16.000000
  0.166667  0.250000  0.083333     16.000000
  0.250000  0.250000  0.083333     16.000000
  0.333333  0.250000  0.083333     16.000000
  0.416667  0.250000  0.083333     16.000000
  0.500000  0.250000  0.083333      8.000000
  0.000000  0.333333  0.083333      8.000000
  0.083333  0.333333  0.083333     16.000000
  0.166667  0.333333  0.083333     16.000000
  0.250000  0.333333  0.083333     16.000000
  0.333333  0.333333  0.083333     16.000000
  0.416667  0.333333  0.083333     16.000000
  0.500000  0.333333  0.083333      8.000000
  0.000000  0.416667  0.083333      8.000000
  0.083333  0.416667  0.083333     16.000000
  0.166667  0.416667  0.083333     16.000000
  0.250000  0.416667  0.083333     16.000000
  0.333333  0.416667  0.083333     16.000000
  0.416667  0.416667  0.083333     16.000000
  0.500000  0.416667  0.083333      8.000000
  0.000000  0.500000  0.083333      4.000000
  0.083333  0.500000  0.083333      8.000000
  0.166667  0.500000  0.083333      8.000000
  0.250000  0.500000  0.083333      8.000000
  0.333333  0.500000  0.083333      8.000000
  0.416667  0.500000  0.083333      8.000000
  0.500000  0.500000  0.083333      4.000000
  0.000000  0.166667  0.166667      4.000000
  0.083333  0.166667  0.166667      8.000000
  0.166667  0.166667  0.166667      8.000000
  0.250000  0.166667  0.166667      8.000000
  0.333333  0.166667  0.166667      8.000000
  0.416667  0.166667  0.166667      8.000000
  0.500000  0.166667  0.166667      4.000000
  0.000000  0.250000  0.166667      8.000000
  0.083333  0.250000  0.166667     16.000000
  0.166667  0.250000  0.166667     16.000000
  0.250000  0.250000  0.166667     16.000000
  0.333333  0.250000  0.166667     16.000000
  0.416667  0.250000  0.166667     16.000000
  0.500000  0.250000  0.166667      8.000000
  0.000000  0.333333  0.166667      8.000000
  0.083333  0.333333  0.166667     16.000000
  0.166667  0.333333  0.166667     16.000000
  0.250000  0.333333  0.166667     16.000000
  0.333333  0.333333  0.166667     16.000000
  0.416667  0.333333  0.166667     16.000000
  0.500000  0.333333  0.166667      8.000000
  0.000000  0.416667  0.166667      8.000000
  0.083333  0.416667  0.166667     16.000000
  0.166667  0.416667  0.166667     16.000000
  0.250000  0.416667  0.166667     16.000000
  0.333333  0.416667  0.166667     16.000000
  0.416667  0.416667  0.166667     16.000000
  0.500000  0.416667  0.166667      8.000000
  0.000000  0.500000  0.166667      4.000000
  0.083333  0.500000  0.166667      8.000000
  0.166667  0.500000  0.166667      8.000000
  0.250000  0.500000  0.166667      8.000000
  0.333333  0.500000  0.166667      8.000000
  0.416667  0.500000  0.166667      8.000000
  0.500000  0.500000  0.166667      4.000000
  0.000000  0.250000  0.250000      4.000000
  0.083333  0.250000  0.250000      8.000000
  0.166667  0.250000  0.250000      8.000000
  0.250000  0.250000  0.250000      8.000000
  0.333333  0.250000  0.250000      8.000000
  0.416667  0.250000  0.250000      8.000000
  0.500000  0.250000  0.250000      4.000000
  0.000000  0.333333  0.250000      8.000000
  0.083333  0.333333  0.250000     16.000000
  0.166667  0.333333  0.250000     16.000000
  0.250000  0.333333  0.250000     16.000000
  0.333333  0.333333  0.250000     16.000000
  0.416667  0.333333  0.250000     16.000000
  0.500000  0.333333  0.250000      8.000000
  0.000000  0.416667  0.250000      8.000000
  0.083333  0.416667  0.250000     16.000000
  0.166667  0.416667  0.250000     16.000000
  0.250000  0.416667  0.250000     16.000000
  0.333333  0.416667  0.250000     16.000000
  0.416667  0.416667  0.250000     16.000000
  0.500000  0.416667  0.250000      8.000000
  0.000000  0.500000  0.250000      4.000000
  0.083333  0.500000  0.250000      8.000000
  0.166667  0.500000  0.250000      8.000000
  0.250000  0.500000  0.250000      8.000000
  0.333333  0.500000  0.250000      8.000000
  0.416667  0.500000  0.250000      8.000000
  0.500000  0.500000  0.250000      4.000000
  0.000000  0.333333  0.333333      4.000000
  0.083333  0.333333  0.333333      8.000000
  0.166667  0.333333  0.333333      8.000000
  0.250000  0.333333  0.333333      8.000000
  0.333333  0.333333  0.333333      8.000000
  0.416667  0.333333  0.333333      8.000000
  0.500000  0.333333  0.333333      4.000000
  0.000000  0.416667  0.333333      8.000000
  0.083333  0.416667  0.333333     16.000000
  0.166667  0.416667  0.333333     16.000000
  0.250000  0.416667  0.333333     16.000000
  0.333333  0.416667  0.333333     16.000000
  0.416667  0.416667  0.333333     16.000000
  0.500000  0.416667  0.333333      8.000000
  0.000000  0.500000  0.333333      4.000000
  0.083333  0.500000  0.333333      8.000000
  0.166667  0.500000  0.333333      8.000000
  0.250000  0.500000  0.333333      8.000000
  0.333333  0.500000  0.333333      8.000000
  0.416667  0.500000  0.333333      8.000000
  0.500000  0.500000  0.333333      4.000000
  0.000000  0.416667  0.416667      4.000000
  0.083333  0.416667  0.416667      8.000000
  0.166667  0.416667  0.416667      8.000000
  0.250000  0.416667  0.416667      8.000000
  0.333333  0.416667  0.416667      8.000000
  0.416667  0.416667  0.416667      8.000000
  0.500000  0.416667  0.416667      4.000000
  0.000000  0.500000  0.416667      4.000000
  0.083333  0.500000  0.416667      8.000000
  0.166667  0.500000  0.416667      8.000000
  0.250000  0.500000  0.416667      8.000000
  0.333333  0.500000  0.416667      8.000000
  0.416667  0.500000  0.416667      8.000000
  0.500000  0.500000  0.416667      4.000000
  0.000000  0.500000  0.500000      1.000000
  0.083333  0.500000  0.500000      2.000000
  0.166667  0.500000  0.500000      2.000000
  0.250000  0.500000  0.500000      2.000000
  0.333333  0.500000  0.500000      2.000000
  0.416667  0.500000  0.500000      2.000000
  0.500000  0.500000  0.500000      1.000000
 
 Following cartesian coordinates:
            Coordinates               Weight
  0.000000  0.000000  0.000000      1.000000
  0.009923  0.000000  0.000000      2.000000
  0.019847  0.000000  0.000000      2.000000
  0.029770  0.000000  0.000000      2.000000
  0.039694  0.000000  0.000000      2.000000
  0.049617  0.000000  0.000000      2.000000
  0.059541  0.000000  0.000000      1.000000
  0.000000  0.009923  0.000000      4.000000
  0.009923  0.009923  0.000000      8.000000
  0.019847  0.009923  0.000000      8.000000
  0.029770  0.009923  0.000000      8.000000
  0.039694  0.009923  0.000000      8.000000
  0.049617  0.009923  0.000000      8.000000
  0.059541  0.009923  0.000000      4.000000
  0.000000  0.019847  0.000000      4.000000
  0.009923  0.019847  0.000000      8.000000
  0.019847  0.019847  0.000000      8.000000
  0.029770  0.019847  0.000000      8.000000
  0.039694  0.019847  0.000000      8.000000
  0.049617  0.019847  0.000000      8.000000
  0.059541  0.019847  0.000000      4.000000
  0.000000  0.029770  0.000000      4.000000
  0.009923  0.029770  0.000000      8.000000
  0.019847  0.029770  0.000000      8.000000
  0.029770  0.029770  0.000000      8.000000
  0.039694  0.029770  0.000000      8.000000
  0.049617  0.029770  0.000000      8.000000
  0.059541  0.029770  0.000000      4.000000
  0.000000  0.039694  0.000000      4.000000
  0.009923  0.039694  0.000000      8.000000
  0.019847  0.039694  0.000000      8.000000
  0.029770  0.039694  0.000000      8.000000
  0.039694  0.039694  0.000000      8.000000
  0.049617  0.039694  0.000000      8.000000
  0.059541  0.039694  0.000000      4.000000
  0.000000  0.049617  0.000000      4.000000
  0.009923  0.049617  0.000000      8.000000
  0.019847  0.049617  0.000000      8.000000
  0.029770  0.049617  0.000000      8.000000
  0.039694  0.049617  0.000000      8.000000
  0.049617  0.049617  0.000000      8.000000
  0.059541  0.049617  0.000000      4.000000
  0.000000  0.059541  0.000000      2.000000
  0.009923  0.059541  0.000000      4.000000
  0.019847  0.059541  0.000000      4.000000
  0.029770  0.059541  0.000000      4.000000
  0.039694  0.059541  0.000000      4.000000
  0.049617  0.059541  0.000000      4.000000
  0.059541  0.059541  0.000000      2.000000
  0.000000  0.009923  0.009923      4.000000
  0.009923  0.009923  0.009923      8.000000
  0.019847  0.009923  0.009923      8.000000
  0.029770  0.009923  0.009923      8.000000
  0.039694  0.009923  0.009923      8.000000
  0.049617  0.009923  0.009923      8.000000
  0.059541  0.009923  0.009923      4.000000
  0.000000  0.019847  0.009923      8.000000
  0.009923  0.019847  0.009923     16.000000
  0.019847  0.019847  0.009923     16.000000
  0.029770  0.019847  0.009923     16.000000
  0.039694  0.019847  0.009923     16.000000
  0.049617  0.019847  0.009923     16.000000
  0.059541  0.019847  0.009923      8.000000
  0.000000  0.029770  0.009923      8.000000
  0.009923  0.029770  0.009923     16.000000
  0.019847  0.029770  0.009923     16.000000
  0.029770  0.029770  0.009923     16.000000
  0.039694  0.029770  0.009923     16.000000
  0.049617  0.029770  0.009923     16.000000
  0.059541  0.029770  0.009923      8.000000
  0.000000  0.039694  0.009923      8.000000
  0.009923  0.039694  0.009923     16.000000
  0.019847  0.039694  0.009923     16.000000
  0.029770  0.039694  0.009923     16.000000
  0.039694  0.039694  0.009923     16.000000
  0.049617  0.039694  0.009923     16.000000
  0.059541  0.039694  0.009923      8.000000
  0.000000  0.049617  0.009923      8.000000
  0.009923  0.049617  0.009923     16.000000
  0.019847  0.049617  0.009923     16.000000
  0.029770  0.049617  0.009923     16.000000
  0.039694  0.049617  0.009923     16.000000
  0.049617  0.049617  0.009923     16.000000
  0.059541  0.049617  0.009923      8.000000
  0.000000  0.059541  0.009923      4.000000
  0.009923  0.059541  0.009923      8.000000
  0.019847  0.059541  0.009923      8.000000
  0.029770  0.059541  0.009923      8.000000
  0.039694  0.059541  0.009923      8.000000
  0.049617  0.059541  0.009923      8.000000
  0.059541  0.059541  0.009923      4.000000
  0.000000  0.019847  0.019847      4.000000
  0.009923  0.019847  0.019847      8.000000
  0.019847  0.019847  0.019847      8.000000
  0.029770  0.019847  0.019847      8.000000
  0.039694  0.019847  0.019847      8.000000
  0.049617  0.019847  0.019847      8.000000
  0.059541  0.019847  0.019847      4.000000
  0.000000  0.029770  0.019847      8.000000
  0.009923  0.029770  0.019847     16.000000
  0.019847  0.029770  0.019847     16.000000
  0.029770  0.029770  0.019847     16.000000
  0.039694  0.029770  0.019847     16.000000
  0.049617  0.029770  0.019847     16.000000
  0.059541  0.029770  0.019847      8.000000
  0.000000  0.039694  0.019847      8.000000
  0.009923  0.039694  0.019847     16.000000
  0.019847  0.039694  0.019847     16.000000
  0.029770  0.039694  0.019847     16.000000
  0.039694  0.039694  0.019847     16.000000
  0.049617  0.039694  0.019847     16.000000
  0.059541  0.039694  0.019847      8.000000
  0.000000  0.049617  0.019847      8.000000
  0.009923  0.049617  0.019847     16.000000
  0.019847  0.049617  0.019847     16.000000
  0.029770  0.049617  0.019847     16.000000
  0.039694  0.049617  0.019847     16.000000
  0.049617  0.049617  0.019847     16.000000
  0.059541  0.049617  0.019847      8.000000
  0.000000  0.059541  0.019847      4.000000
  0.009923  0.059541  0.019847      8.000000
  0.019847  0.059541  0.019847      8.000000
  0.029770  0.059541  0.019847      8.000000
  0.039694  0.059541  0.019847      8.000000
  0.049617  0.059541  0.019847      8.000000
  0.059541  0.059541  0.019847      4.000000
  0.000000  0.029770  0.029770      4.000000
  0.009923  0.029770  0.029770      8.000000
  0.019847  0.029770  0.029770      8.000000
  0.029770  0.029770  0.029770      8.000000
  0.039694  0.029770  0.029770      8.000000
  0.049617  0.029770  0.029770      8.000000
  0.059541  0.029770  0.029770      4.000000
  0.000000  0.039694  0.029770      8.000000
  0.009923  0.039694  0.029770     16.000000
  0.019847  0.039694  0.029770     16.000000
  0.029770  0.039694  0.029770     16.000000
  0.039694  0.039694  0.029770     16.000000
  0.049617  0.039694  0.029770     16.000000
  0.059541  0.039694  0.029770      8.000000
  0.000000  0.049617  0.029770      8.000000
  0.009923  0.049617  0.029770     16.000000
  0.019847  0.049617  0.029770     16.000000
  0.029770  0.049617  0.029770     16.000000
  0.039694  0.049617  0.029770     16.000000
  0.049617  0.049617  0.029770     16.000000
  0.059541  0.049617  0.029770      8.000000
  0.000000  0.059541  0.029770      4.000000
  0.009923  0.059541  0.029770      8.000000
  0.019847  0.059541  0.029770      8.000000
  0.029770  0.059541  0.029770      8.000000
  0.039694  0.059541  0.029770      8.000000
  0.049617  0.059541  0.029770      8.000000
  0.059541  0.059541  0.029770      4.000000
  0.000000  0.039694  0.039694      4.000000
  0.009923  0.039694  0.039694      8.000000
  0.019847  0.039694  0.039694      8.000000
  0.029770  0.039694  0.039694      8.000000
  0.039694  0.039694  0.039694      8.000000
  0.049617  0.039694  0.039694      8.000000
  0.059541  0.039694  0.039694      4.000000
  0.000000  0.049617  0.039694      8.000000
  0.009923  0.049617  0.039694     16.000000
  0.019847  0.049617  0.039694     16.000000
  0.029770  0.049617  0.039694     16.000000
  0.039694  0.049617  0.039694     16.000000
  0.049617  0.049617  0.039694     16.000000
  0.059541  0.049617  0.039694      8.000000
  0.000000  0.059541  0.039694      4.000000
  0.009923  0.059541  0.039694      8.000000
  0.019847  0.059541  0.039694      8.000000
  0.029770  0.059541  0.039694      8.000000
  0.039694  0.059541  0.039694      8.000000
  0.049617  0.059541  0.039694      8.000000
  0.059541  0.059541  0.039694      4.000000
  0.000000  0.049617  0.049617      4.000000
  0.009923  0.049617  0.049617      8.000000
  0.019847  0.049617  0.049617      8.000000
  0.029770  0.049617  0.049617      8.000000
  0.039694  0.049617  0.049617      8.000000
  0.049617  0.049617  0.049617      8.000000
  0.059541  0.049617  0.049617      4.000000
  0.000000  0.059541  0.049617      4.000000
  0.009923  0.059541  0.049617      8.000000
  0.019847  0.059541  0.049617      8.000000
  0.029770  0.059541  0.049617      8.000000
  0.039694  0.059541  0.049617      8.000000
  0.049617  0.059541  0.049617      8.000000
  0.059541  0.059541  0.049617      4.000000
  0.000000  0.059541  0.059541      1.000000
  0.009923  0.059541  0.059541      2.000000
  0.019847  0.059541  0.059541      2.000000
  0.029770  0.059541  0.059541      2.000000
  0.039694  0.059541  0.059541      2.000000
  0.049617  0.059541  0.059541      2.000000
  0.059541  0.059541  0.059541      1.000000
 


--------------------------------------------------------------------------------------------------------




 Dimension of arrays:
   k-Points           NKPTS =    196   number of bands    NBANDS=     68
   number of dos      NEDOS =    301   number of ions     NIONS =     32
   non local maximal  LDIM  =      4   non local SUM 2l+1 LMDIM =      8
   total plane-waves  NPLWV = 512000
   max r-space proj   IRMAX =      1   max aug-charges    IRDMAX= 269361
   dimension x,y,z NGX =    80 NGY =   80 NGZ =   80
   dimension x,y,z NGXF=   160 NGYF=  160 NGZF=  160
   support grid    NGXF=   320 NGYF=  320 NGZF=  320
   ions per type =              32
 NGX,Y,Z   is equivalent  to a cutoff of  15.84, 15.84, 15.84 a.u.
 NGXF,Y,Z  is equivalent  to a cutoff of  31.67, 31.67, 31.67 a.u.


 I would recommend the setting:
   dimension x,y,z NGX =    75 NGY =   75 NGZ =   75
 SYSTEM =  unknown system                          
 POSCAR =  Al                                      

 Startparameter for this run:
   NWRITE =      2    write-flag & timer
   PREC   = accura    medium, high low
   ISTART =      0    job   : 0-new  1-cont  2-samecut
   ICHARG =      2    charge: 1-file 2-atom 10-const
   ISPIN  =      1    spin polarized calculation?
   LNONCOLLINEAR =      F non collinear calculations
   LSORBIT =      F    spin-orbit coupling
   INIWAV =      1    electr: 0-lowe 1-rand  2-diag
   LASPH  =      F    aspherical Exc in radial PAW
   METAGGA=      F    non-selfconsistent MetaGGA calc.

 Electronic Relaxation 1
   ENCUT  =  750.0 eV  55.12 Ry    7.42 a.u.  18.75 18.75 18.75*2*pi/ulx,y,z
   ENINI  =  750.0     initial cutoff
   ENAUG  =  291.1 eV  augmentation charge cutoff
   NELM   =     60;   NELMIN=  2; NELMDL=  0     # of ELM steps 
   EDIFF  = 0.1E-07   stopping-criterion for ELM
   LREAL  =      F    real-space projection
   LCOMPAT=      F    compatible to vasp.4.4
   LREAL_COMPAT= F    compatible to vasp.4.5.1-3
   GGA_COMPAT  = T    GGA compatible to vasp.4.4-vasp.4.6
   LMAXPAW     = -100 max onsite density
   LMAXMIX     =    2 max onsite mixed and CHGCAR
   VOSKOWN=      0    Vosko Wilk Nusair interpolation
   ROPT   =    0.00000
 Ionic relaxation
   EDIFFG = 0.1E-06   stopping-criterion for IOM
   NSW    =      0    number of steps for IOM
   NBLOCK =      1;   KBLOCK =      1    inner block; outer block 
   IBRION =     -1    ionic relax: 0-MD 1-quasi-New 2-CG
   NFREE  =      0    steps in history (QN), initial steepest desc. (CG)
   ISIF   =      2    stress and relaxation
   IWAVPR =     10    prediction:  0-non 1-charg 2-wave 3-comb
   ISYM   =      2    0-nonsym 1-usesym 2-fastsym
   LCORR  =      T    Harris-Foulkes like correction to forces

   POTIM  =   0.50    time-step for ionic-motion
   TEIN   =    0.0    initial temperature
   TEBEG  =    0.0;   TEEND  =   0.0 temperature during run
   SMASS  =  -3.00    Nose mass-parameter (am)
   estimated Nose-frequenzy (Omega)   =  0.10E-29 period in steps =****** mass=  -0.161E-26a.u.
   NPACO  =    256;   APACO  = 16.0  distance and # of slots for P.C.
   PSTRESS=    0.0 pullay stress

  Mass of Ions in am
   POMASS =  26.98
  Ionic Valenz
   ZVAL   =   3.00
  Atomic Wigner-Seitz radii
   RWIGS  =  -1.00
   NELECT =      96.0000    total number of electrons
   NUPDOWN=      -1.0000    fix difference up-down

 DOS related values:
   EMIN   =  10.00;   EMAX   =-10.00  energy-range for DOS
   ISMEAR =     0;   SIGMA  =   0.01  broadening in eV -4-tet -1-fermi 0-gaus

 Electronic relaxation 2 (details)
   IALGO  =     38    algorithm
   LDIAG  =      T    sub-space diagonalisation
   IMIX   =      4    mixing-type and parameters
     AMIX     =   0.40;   BMIX     =  1.00
     AMIX_MAG =   1.60;   BMIX_MAG =  1.00
     AMIN     =   0.10
     WC   =   100.;   INIMIX=   1;  MIXPRE=   1

 Intra band minimization:
   WEIMIN = 0.0000     energy-eigenvalue tresh-hold
   EBREAK =  0.38E-10  absolut break condition
   DEPER  =   0.30     relativ break condition  

   TIME   =   0.10     timestep for ELM

  volume/ion in A,a.u.               =      18.51       124.89
  Fermi-wavevector in a.u.,eV,Ry     =   0.892641 10.841232  0.796808

 Second variation
   LSECVAR=     F    do a second variation
 
 Write flags
   LWAVE  =      F    write WAVECAR
   LCHARG =      F    write CHGCAR
   LVTOT  =      F    write LOCPOT, local potential
   LELF   =      F    write electronic localiz. function (ELF)
   LORBIT =      0    0 simple, 1 ext, 2 COOP (PROOUT)


 Dipole corrections
   IDIPOL =      0    1-x, 2-y, 3-z
   LDIPOL =      F    correct potential



--------------------------------------------------------------------------------------------------------


 Static calculation
 charge density will be updated during run
 non-spin polarized calculation
 Variant of blocked Davidson
 Davidson routine will perform the subspace rotation
 performe sub-space diagonalisation
    after iterative eigenvector-optimisation
 modified Broyden-mixing scheme, WC =      100.0
 initial mixing is a Kerker type mixing with AMIX =  0.4000 and BMIX =      1.0000
 Hartree-type preconditioning will be used
 using additional bands           20
 reciprocal scheme for non local part
 use partial core corrections
 calculate Harris-corrections to forces 
   (improved forces if not selfconsistent)
 use gradient corrections 
 use of overlap-Matrix (Vanderbilt PP)
 Gauss-broadening in eV      SIGMA  =   0.01


--------------------------------------------------------------------------------------------------------


  energy-cutoff  :      750.00
  volume of cell :      592.20
      direct lattice vectors                 reciprocal lattice vectors
     8.397597249  0.000000000  0.000000000     0.119081681  0.000000000  0.000000000
     0.000000000  8.397597249  0.000000000     0.000000000  0.119081681  0.000000000
     0.000000000  0.000000000  8.397597249     0.000000000  0.000000000  0.119081681

  length of vectors
     8.397597249  8.397597249  8.397597249     0.119081681  0.119081681  0.119081681


 
 k-points in units of 2pi/SCALE and weight: Automatic mesh                          
   0.00000000  0.00000000  0.00000000       0.001
   0.00992347  0.00000000  0.00000000       0.001
   0.01984695  0.00000000  0.00000000       0.001
   0.02977042  0.00000000  0.00000000       0.001
   0.03969389  0.00000000  0.00000000       0.001
   0.04961737  0.00000000  0.00000000       0.001
   0.05954084  0.00000000  0.00000000       0.001
   0.00000000  0.00992347  0.00000000       0.002
   0.00992347  0.00992347  0.00000000       0.005
   0.01984695  0.00992347  0.00000000       0.005
   0.02977042  0.00992347  0.00000000       0.005
   0.03969389  0.00992347  0.00000000       0.005
   0.04961737  0.00992347  0.00000000       0.005
   0.05954084  0.00992347  0.00000000       0.002
   0.00000000  0.01984695  0.00000000       0.002
   0.00992347  0.01984695  0.00000000       0.005
   0.01984695  0.01984695  0.00000000       0.005
   0.02977042  0.01984695  0.00000000       0.005
   0.03969389  0.01984695  0.00000000       0.005
   0.04961737  0.01984695  0.00000000       0.005
   0.05954084  0.01984695  0.00000000       0.002
   0.00000000  0.02977042  0.00000000       0.002
   0.00992347  0.02977042  0.00000000       0.005
   0.01984695  0.02977042  0.00000000       0.005
   0.02977042  0.02977042  0.00000000       0.005
   0.03969389  0.02977042  0.00000000       0.005
   0.04961737  0.02977042  0.00000000       0.005
   0.05954084  0.02977042  0.00000000       0.002
   0.00000000  0.03969389  0.00000000       0.002
   0.00992347  0.03969389  0.00000000       0.005
   0.01984695  0.03969389  0.00000000       0.005
   0.02977042  0.03969389  0.00000000       0.005
   0.03969389  0.03969389  0.00000000       0.005
   0.04961737  0.03969389  0.00000000       0.005
   0.05954084  0.03969389  0.00000000       0.002
   0.00000000  0.04961737  0.00000000       0.002
   0.00992347  0.04961737  0.00000000       0.005
   0.01984695  0.04961737  0.00000000       0.005
   0.02977042  0.04961737  0.00000000       0.005
   0.03969389  0.04961737  0.00000000       0.005
   0.04961737  0.04961737  0.00000000       0.005
   0.05954084  0.04961737  0.00000000       0.002
   0.00000000  0.05954084  0.00000000       0.001
   0.00992347  0.05954084  0.00000000       0.002
   0.01984695  0.05954084  0.00000000       0.002
   0.02977042  0.05954084  0.00000000       0.002
   0.03969389  0.05954084  0.00000000       0.002
   0.04961737  0.05954084  0.00000000       0.002
   0.05954084  0.05954084  0.00000000       0.001
   0.00000000  0.00992347  0.00992347       0.002
   0.00992347  0.00992347  0.00992347       0.005
   0.01984695  0.00992347  0.00992347       0.005
   0.02977042  0.00992347  0.00992347       0.005
   0.03969389  0.00992347  0.00992347       0.005
   0.04961737  0.00992347  0.00992347       0.005
   0.05954084  0.00992347  0.00992347       0.002
   0.00000000  0.01984695  0.00992347       0.005
   0.00992347  0.01984695  0.00992347       0.009
   0.01984695  0.01984695  0.00992347       0.009
   0.02977042  0.01984695  0.00992347       0.009
   0.03969389  0.01984695  0.00992347       0.009
   0.04961737  0.01984695  0.00992347       0.009
   0.05954084  0.01984695  0.00992347       0.005
   0.00000000  0.02977042  0.00992347       0.005
   0.00992347  0.02977042  0.00992347       0.009
   0.01984695  0.02977042  0.00992347       0.009
   0.02977042  0.02977042  0.00992347       0.009
   0.03969389  0.02977042  0.00992347       0.009
   0.04961737  0.02977042  0.00992347       0.009
   0.05954084  0.02977042  0.00992347       0.005
   0.00000000  0.03969389  0.00992347       0.005
   0.00992347  0.03969389  0.00992347       0.009
   0.01984695  0.03969389  0.00992347       0.009
   0.02977042  0.03969389  0.00992347       0.009
   0.03969389  0.03969389  0.00992347       0.009
   0.04961737  0.03969389  0.00992347       0.009
   0.05954084  0.03969389  0.00992347       0.005
   0.00000000  0.04961737  0.00992347       0.005
   0.00992347  0.04961737  0.00992347       0.009
   0.01984695  0.04961737  0.00992347       0.009
   0.02977042  0.04961737  0.00992347       0.009
   0.03969389  0.04961737  0.00992347       0.009
   0.04961737  0.04961737  0.00992347       0.009
   0.05954084  0.04961737  0.00992347       0.005
   0.00000000  0.05954084  0.00992347       0.002
   0.00992347  0.05954084  0.00992347       0.005
   0.01984695  0.05954084  0.00992347       0.005
   0.02977042  0.05954084  0.00992347       0.005
   0.03969389  0.05954084  0.00992347       0.005
   0.04961737  0.05954084  0.00992347       0.005
   0.05954084  0.05954084  0.00992347       0.002
   0.00000000  0.01984695  0.01984695       0.002
   0.00992347  0.01984695  0.01984695       0.005
   0.01984695  0.01984695  0.01984695       0.005
   0.02977042  0.01984695  0.01984695       0.005
   0.03969389  0.01984695  0.01984695       0.005
   0.04961737  0.01984695  0.01984695       0.005
   0.05954084  0.01984695  0.01984695       0.002
   0.00000000  0.02977042  0.01984695       0.005
   0.00992347  0.02977042  0.01984695       0.009
   0.01984695  0.02977042  0.01984695       0.009
   0.02977042  0.02977042  0.01984695       0.009
   0.03969389  0.02977042  0.01984695       0.009
   0.04961737  0.02977042  0.01984695       0.009
   0.05954084  0.02977042  0.01984695       0.005
   0.00000000  0.03969389  0.01984695       0.005
   0.00992347  0.03969389  0.01984695       0.009
   0.01984695  0.03969389  0.01984695       0.009
   0.02977042  0.03969389  0.01984695       0.009
   0.03969389  0.03969389  0.01984695       0.009
   0.04961737  0.03969389  0.01984695       0.009
   0.05954084  0.03969389  0.01984695       0.005
   0.00000000  0.04961737  0.01984695       0.005
   0.00992347  0.04961737  0.01984695       0.009
   0.01984695  0.04961737  0.01984695       0.009
   0.02977042  0.04961737  0.01984695       0.009
   0.03969389  0.04961737  0.01984695       0.009
   0.04961737  0.04961737  0.01984695       0.009
   0.05954084  0.04961737  0.01984695       0.005
   0.00000000  0.05954084  0.01984695       0.002
   0.00992347  0.05954084  0.01984695       0.005
   0.01984695  0.05954084  0.01984695       0.005
   0.02977042  0.05954084  0.01984695       0.005
   0.03969389  0.05954084  0.01984695       0.005
   0.04961737  0.05954084  0.01984695       0.005
   0.05954084  0.05954084  0.01984695       0.002
   0.00000000  0.02977042  0.02977042       0.002
   0.00992347  0.02977042  0.02977042       0.005
   0.01984695  0.02977042  0.02977042       0.005
   0.02977042  0.02977042  0.02977042       0.005
   0.03969389  0.02977042  0.02977042       0.005
   0.04961737  0.02977042  0.02977042       0.005
   0.05954084  0.02977042  0.02977042       0.002
   0.00000000  0.03969389  0.02977042       0.005
   0.00992347  0.03969389  0.02977042       0.009
   0.01984695  0.03969389  0.02977042       0.009
   0.02977042  0.03969389  0.02977042       0.009
   0.03969389  0.03969389  0.02977042       0.009
   0.04961737  0.03969389  0.02977042       0.009
   0.05954084  0.03969389  0.02977042       0.005
   0.00000000  0.04961737  0.02977042       0.005
   0.00992347  0.04961737  0.02977042       0.009
   0.01984695  0.04961737  0.02977042       0.009
   0.02977042  0.04961737  0.02977042       0.009
   0.03969389  0.04961737  0.02977042       0.009
   0.04961737  0.04961737  0.02977042       0.009
   0.05954084  0.04961737  0.02977042       0.005
   0.00000000  0.05954084  0.02977042       0.002
   0.00992347  0.05954084  0.02977042       0.005
   0.01984695  0.05954084  0.02977042       0.005
   0.02977042  0.05954084  0.02977042       0.005
   0.03969389  0.05954084  0.02977042       0.005
   0.04961737  0.05954084  0.02977042       0.005
   0.05954084  0.05954084  0.02977042       0.002
   0.00000000  0.03969389  0.03969389       0.002
   0.00992347  0.03969389  0.03969389       0.005
   0.01984695  0.03969389  0.03969389       0.005
   0.02977042  0.03969389  0.03969389       0.005
   0.03969389  0.03969389  0.03969389       0.005
   0.04961737  0.03969389  0.03969389       0.005
   0.05954084  0.03969389  0.03969389       0.002
   0.00000000  0.04961737  0.03969389       0.005
   0.00992347  0.04961737  0.03969389       0.009
   0.01984695  0.04961737  0.03969389       0.009
   0.02977042  0.04961737  0.03969389       0.009
   0.03969389  0.04961737  0.03969389       0.009
   0.04961737  0.04961737  0.03969389       0.009
   0.05954084  0.04961737  0.03969389       0.005
   0.00000000  0.05954084  0.03969389       0.002
   0.00992347  0.05954084  0.03969389       0.005
   0.01984695  0.05954084  0.03969389       0.005
   0.02977042  0.05954084  0.03969389       0.005
   0.03969389  0.05954084  0.03969389       0.005
   0.04961737  0.05954084  0.03969389       0.005
   0.05954084  0.05954084  0.03969389       0.002
   0.00000000  0.04961737  0.04961737       0.002
   0.00992347  0.04961737  0.04961737       0.005
   0.01984695  0.04961737  0.04961737       0.005
   0.02977042  0.04961737  0.04961737       0.005
   0.03969389  0.04961737  0.04961737       0.005
   0.04961737  0.04961737  0.04961737       0.005
   0.05954084  0.04961737  0.04961737       0.002
   0.00000000  0.05954084  0.04961737       0.002
   0.00992347  0.05954084  0.04961737       0.005
   0.01984695  0.05954084  0.04961737       0.005
   0.02977042  0.05954084  0.04961737       0.005
   0.03969389  0.05954084  0.04961737       0.005
   0.04961737  0.05954084  0.04961737       0.005
   0.05954084  0.05954084  0.04961737       0.002
   0.00000000  0.05954084  0.05954084       0.001
   0.00992347  0.05954084  0.05954084       0.001
   0.01984695  0.05954084  0.05954084       0.001
   0.02977042  0.05954084  0.05954084       0.001
   0.03969389  0.05954084  0.05954084       0.001
   0.04961737  0.05954084  0.05954084       0.001
   0.05954084  0.05954084  0.05954084       0.001
 
 k-points in reciprocal lattice and weights: Automatic mesh                          
   0.00000000  0.00000000  0.00000000       0.001
   0.08333333  0.00000000  0.00000000       0.001
   0.16666667  0.00000000  0.00000000       0.001
   0.25000000  0.00000000  0.00000000       0.001
   0.33333333  0.00000000  0.00000000       0.001
   0.41666667  0.00000000  0.00000000       0.001
   0.50000000  0.00000000  0.00000000       0.001
   0.00000000  0.08333333  0.00000000       0.002
   0.08333333  0.08333333  0.00000000       0.005
   0.16666667  0.08333333  0.00000000       0.005
   0.25000000  0.08333333  0.00000000       0.005
   0.33333333  0.08333333  0.00000000       0.005
   0.41666667  0.08333333  0.00000000       0.005
   0.50000000  0.08333333  0.00000000       0.002
   0.00000000  0.16666667  0.00000000       0.002
   0.08333333  0.16666667  0.00000000       0.005
   0.16666667  0.16666667  0.00000000       0.005
   0.25000000  0.16666667  0.00000000       0.005
   0.33333333  0.16666667  0.00000000       0.005
   0.41666667  0.16666667  0.00000000       0.005
   0.50000000  0.16666667  0.00000000       0.002
   0.00000000  0.25000000  0.00000000       0.002
   0.08333333  0.25000000  0.00000000       0.005
   0.16666667  0.25000000  0.00000000       0.005
   0.25000000  0.25000000  0.00000000       0.005
   0.33333333  0.25000000  0.00000000       0.005
   0.41666667  0.25000000  0.00000000       0.005
   0.50000000  0.25000000  0.00000000       0.002
   0.00000000  0.33333333  0.00000000       0.002
   0.08333333  0.33333333  0.00000000       0.005
   0.16666667  0.33333333  0.00000000       0.005
   0.25000000  0.33333333  0.00000000       0.005
   0.33333333  0.33333333  0.00000000       0.005
   0.41666667  0.33333333  0.00000000       0.005
   0.50000000  0.33333333  0.00000000       0.002
   0.00000000  0.41666667  0.00000000       0.002
   0.08333333  0.41666667  0.00000000       0.005
   0.16666667  0.41666667  0.00000000       0.005
   0.25000000  0.41666667  0.00000000       0.005
   0.33333333  0.41666667  0.00000000       0.005
   0.41666667  0.41666667  0.00000000       0.005
   0.50000000  0.41666667  0.00000000       0.002
   0.00000000  0.50000000  0.00000000       0.001
   0.08333333  0.50000000  0.00000000       0.002
   0.16666667  0.50000000  0.00000000       0.002
   0.25000000  0.50000000  0.00000000       0.002
   0.33333333  0.50000000  0.00000000       0.002
   0.41666667  0.50000000  0.00000000       0.002
   0.50000000  0.50000000  0.00000000       0.001
   0.00000000  0.08333333  0.08333333       0.002
   0.08333333  0.08333333  0.08333333       0.005
   0.16666667  0.08333333  0.08333333       0.005
   0.25000000  0.08333333  0.08333333       0.005
   0.33333333  0.08333333  0.08333333       0.005
   0.41666667  0.08333333  0.08333333       0.005
   0.50000000  0.08333333  0.08333333       0.002
   0.00000000  0.16666667  0.08333333       0.005
   0.08333333  0.16666667  0.08333333       0.009
   0.16666667  0.16666667  0.08333333       0.009
   0.25000000  0.16666667  0.08333333       0.009
   0.33333333  0.16666667  0.08333333       0.009
   0.41666667  0.16666667  0.08333333       0.009
   0.50000000  0.16666667  0.08333333       0.005
   0.00000000  0.25000000  0.08333333       0.005
   0.08333333  0.25000000  0.08333333       0.009
   0.16666667  0.25000000  0.08333333       0.009
   0.25000000  0.25000000  0.08333333       0.009
   0.33333333  0.25000000  0.08333333       0.009
   0.41666667  0.25000000  0.08333333       0.009
   0.50000000  0.25000000  0.08333333       0.005
   0.00000000  0.33333333  0.08333333       0.005
   0.08333333  0.33333333  0.08333333       0.009
   0.16666667  0.33333333  0.08333333       0.009
   0.25000000  0.33333333  0.08333333       0.009
   0.33333333  0.33333333  0.08333333       0.009
   0.41666667  0.33333333  0.08333333       0.009
   0.50000000  0.33333333  0.08333333       0.005
   0.00000000  0.41666667  0.08333333       0.005
   0.08333333  0.41666667  0.08333333       0.009
   0.16666667  0.41666667  0.08333333       0.009
   0.25000000  0.41666667  0.08333333       0.009
   0.33333333  0.41666667  0.08333333       0.009
   0.41666667  0.41666667  0.08333333       0.009
   0.50000000  0.41666667  0.08333333       0.005
   0.00000000  0.50000000  0.08333333       0.002
   0.08333333  0.50000000  0.08333333       0.005
   0.16666667  0.50000000  0.08333333       0.005
   0.25000000  0.50000000  0.08333333       0.005
   0.33333333  0.50000000  0.08333333       0.005
   0.41666667  0.50000000  0.08333333       0.005
   0.50000000  0.50000000  0.08333333       0.002
   0.00000000  0.16666667  0.16666667       0.002
   0.08333333  0.16666667  0.16666667       0.005
   0.16666667  0.16666667  0.16666667       0.005
   0.25000000  0.16666667  0.16666667       0.005
   0.33333333  0.16666667  0.16666667       0.005
   0.41666667  0.16666667  0.16666667       0.005
   0.50000000  0.16666667  0.16666667       0.002
   0.00000000  0.25000000  0.16666667       0.005
   0.08333333  0.25000000  0.16666667       0.009
   0.16666667  0.25000000  0.16666667       0.009
   0.25000000  0.25000000  0.16666667       0.009
   0.33333333  0.25000000  0.16666667       0.009
   0.41666667  0.25000000  0.16666667       0.009
   0.50000000  0.25000000  0.16666667       0.005
   0.00000000  0.33333333  0.16666667       0.005
   0.08333333  0.33333333  0.16666667       0.009
   0.16666667  0.33333333  0.16666667       0.009
   0.25000000  0.33333333  0.16666667       0.009
   0.33333333  0.33333333  0.16666667       0.009
   0.41666667  0.33333333  0.16666667       0.009
   0.50000000  0.33333333  0.16666667       0.005
   0.00000000  0.41666667  0.16666667       0.005
   0.08333333  0.41666667  0.16666667       0.009
   0.16666667  0.41666667  0.16666667       0.009
   0.25000000  0.41666667  0.16666667       0.009
   0.33333333  0.41666667  0.16666667       0.009
   0.41666667  0.41666667  0.16666667       0.009
   0.50000000  0.41666667  0.16666667       0.005
   0.00000000  0.50000000  0.16666667       0.002
   0.08333333  0.50000000  0.16666667       0.005
   0.16666667  0.50000000  0.16666667       0.005
   0.25000000  0.50000000  0.16666667       0.005
   0.33333333  0.50000000  0.16666667       0.005
   0.41666667  0.50000000  0.16666667       0.005
   0.50000000  0.50000000  0.16666667       0.002
   0.00000000  0.25000000  0.25000000       0.002
   0.08333333  0.25000000  0.25000000       0.005
   0.16666667  0.25000000  0.25000000       0.005
   0.25000000  0.25000000  0.25000000       0.005
   0.33333333  0.25000000  0.25000000       0.005
   0.41666667  0.25000000  0.25000000       0.005
   0.50000000  0.25000000  0.25000000       0.002
   0.00000000  0.33333333  0.25000000       0.005
   0.08333333  0.33333333  0.25000000       0.009
   0.16666667  0.33333333  0.25000000       0.009
   0.25000000  0.33333333  0.25000000       0.009
   0.33333333  0.33333333  0.25000000       0.009
   0.41666667  0.33333333  0.25000000       0.009
   0.50000000  0.33333333  0.25000000       0.005
   0.00000000  0.41666667  0.25000000       0.005
   0.08333333  0.41666667  0.25000000       0.009
   0.16666667  0.41666667  0.25000000       0.009
   0.25000000  0.41666667  0.25000000       0.009
   0.33333333  0.41666667  0.25000000       0.009
   0.41666667  0.41666667  0.25000000       0.009
   0.50000000  0.41666667  0.25000000       0.005
   0.00000000  0.50000000  0.25000000       0.002
   0.08333333  0.50000000  0.25000000       0.005
   0.16666667  0.50000000  0.25000000       0.005
   0.25000000  0.50000000  0.25000000       0.005
   0.33333333  0.50000000  0.25000000       0.005
   0.41666667  0.50000000  0.25000000       0.005
   0.50000000  0.50000000  0.25000000       0.002
   0.00000000  0.33333333  0.33333333       0.002
   0.08333333  0.33333333  0.33333333       0.005
   0.16666667  0.33333333  0.33333333       0.005
   0.25000000  0.33333333  0.33333333       0.005
   0.33333333  0.33333333  0.33333333       0.005
   0.41666667  0.33333333  0.33333333       0.005
   0.50000000  0.33333333  0.33333333       0.002
   0.00000000  0.41666667  0.33333333       0.005
   0.08333333  0.41666667  0.33333333       0.009
   0.16666667  0.41666667  0.33333333       0.009
   0.25000000  0.41666667  0.33333333       0.009
   0.33333333  0.41666667  0.33333333       0.009
   0.41666667  0.41666667  0.33333333       0.009
   0.50000000  0.41666667  0.33333333       0.005
   0.00000000  0.50000000  0.33333333       0.002
   0.08333333  0.50000000  0.33333333       0.005
   0.16666667  0.50000000  0.33333333       0.005
   0.25000000  0.50000000  0.33333333       0.005
   0.33333333  0.50000000  0.33333333       0.005
   0.41666667  0.50000000  0.33333333       0.005
   0.50000000  0.50000000  0.33333333       0.002
   0.00000000  0.41666667  0.41666667       0.002
   0.08333333  0.41666667  0.41666667       0.005
   0.16666667  0.41666667  0.41666667       0.005
   0.25000000  0.41666667  0.41666667       0.005
   0.33333333  0.41666667  0.41666667       0.005
   0.41666667  0.41666667  0.41666667       0.005
   0.50000000  0.41666667  0.41666667       0.002
   0.00000000  0.50000000  0.41666667       0.002
   0.08333333  0.50000000  0.41666667       0.005
   0.16666667  0.50000000  0.41666667       0.005
   0.25000000  0.50000000  0.41666667       0.005
   0.33333333  0.50000000  0.41666667       0.005
   0.41666667  0.50000000  0.41666667       0.005
   0.50000000  0.50000000  0.41666667       0.002
   0.00000000  0.50000000  0.50000000       0.001
   0.08333333  0.50000000  0.50000000       0.001
   0.16666667  0.50000000  0.50000000       0.001
   0.25000000  0.50000000  0.50000000       0.001
   0.33333333  0.50000000  0.50000000       0.001
   0.41666667  0.50000000  0.50000000       0.001
   0.50000000  0.50000000  0.50000000       0.001
 
 position of ions in fractional coordinates (direct lattice) 
   0.25119082  0.25000000  0.00000000
   0.75000000  0.25000000  0.00000000
   0.25000000  0.75000000  0.00000000
   0.75000000  0.75000000  0.00000000
   0.25000000  0.25000000  0.50000000
   0.75000000  0.25000000  0.50000000
   0.25000000  0.75000000  0.50000000
   0.75000000  0.75000000  0.50000000
   0.25000000  0.00000000  0.25000000
   0.75000000  0.00000000  0.25000000
   0.25000000  0.50000000  0.25000000
   0.75000000  0.50000000  0.25000000
   0.25000000  0.00000000  0.75000000
   0.75000000  0.00000000  0.75000000
   0.25000000  0.50000000  0.75000000
   0.75000000  0.50000000  0.75000000
   0.00000000  0.25000000  0.25000000
   0.50000000  0.25000000  0.25000000
   0.00000000  0.75000000  0.25000000
   0.50000000  0.75000000  0.25000000
   0.00000000  0.25000000  0.75000000
   0.50000000  0.25000000  0.75000000
   0.00000000  0.75000000  0.75000000
   0.50000000  0.75000000  0.75000000
   0.00000000  0.00000000  0.00000000
   0.50000000  0.00000000  0.00000000
   0.00000000  0.50000000  0.00000000
   0.50000000  0.50000000  0.00000000
   0.00000000  0.00000000  0.50000000
   0.50000000  0.00000000  0.50000000
   0.00000000  0.50000000  0.50000000
   0.50000000  0.50000000  0.50000000
 
 position of ions in cartesian coordinates  (Angst):
   2.10939931  2.09939931  0.00000000
   6.29819794  2.09939931  0.00000000
   2.09939931  6.29819794  0.00000000
   6.29819794  6.29819794  0.00000000
   2.09939931  2.09939931  4.19879862
   6.29819794  2.09939931  4.19879862
   2.09939931  6.29819794  4.19879862
   6.29819794  6.29819794  4.19879862
   2.09939931  0.00000000  2.09939931
   6.29819794  0.00000000  2.09939931
   2.09939931  4.19879862  2.09939931
   6.29819794  4.19879862  2.09939931
   2.09939931  0.00000000  6.29819794
   6.29819794  0.00000000  6.29819794
   2.09939931  4.19879862  6.29819794
   6.29819794  4.19879862  6.29819794
   0.00000000  2.09939931  2.09939931
   4.19879862  2.09939931  2.09939931
   0.00000000  6.29819794  2.09939931
   4.19879862  6.29819794  2.09939931
   0.00000000  2.09939931  6.29819794
   4.19879862  2.09939931  6.29819794
   0.00000000  6.29819794  6.29819794
   4.19879862  6.29819794  6.29819794
   0.00000000  0.00000000  0.00000000
   4.19879862  0.00000000  0.00000000
   0.00000000  4.19879862  0.00000000
   4.19879862  4.19879862  0.00000000
   0.00000000  0.00000000  4.19879862
   4.19879862  0.00000000  4.19879862
   0.00000000  4.19879862  4.19879862
   4.19879862  4.19879862  4.19879862
 


--------------------------------------------------------------------------------------------------------


 k-point  1 :  0.00000.00000.0000  plane waves:  27609
 k-point  2 :  0.08330.00000.0000  plane waves:  27613
 k-point  3 :  0.16670.00000.0000  plane waves:  27649
 k-point  4 :  0.25000.00000.0000  plane waves:  27658
 k-point  5 :  0.33330.00000.0000  plane waves:  27614
 k-point  6 :  0.41670.00000.0000  plane waves:  27590
 k-point  7 :  0.50000.00000.0000  plane waves:  27582
 k-point  8 :  0.00000.08330.0000  plane waves:  27613
 k-point  9 :  0.08330.08330.0000  plane waves:  27617
 k-point 10 :  0.16670.08330.0000  plane waves:  27651
 k-point 11 :  0.25000.08330.0000  plane waves:  27643
 k-point 12 :  0.33330.08330.0000  plane waves:  27632
 k-point 13 :  0.41670.08330.0000  plane waves:  27598
 k-point 14 :  0.50000.08330.0000  plane waves:  27590
 k-point 15 :  0.00000.16670.0000  plane waves:  27649
 k-point 16 :  0.08330.16670.0000  plane waves:  27651
 k-point 17 :  0.16670.16670.0000  plane waves:  27651
 k-point 18 :  0.25000.16670.0000  plane waves:  27647
 k-point 19 :  0.33330.16670.0000  plane waves:  27613
 k-point 20 :  0.41670.16670.0000  plane waves:  27602
 k-point 21 :  0.50000.16670.0000  plane waves:  27610
 k-point 22 :  0.00000.25000.0000  plane waves:  27658
 k-point 23 :  0.08330.25000.0000  plane waves:  27643
 k-point 24 :  0.16670.25000.0000  plane waves:  27647
 k-point 25 :  0.25000.25000.0000  plane waves:  27631
 k-point 26 :  0.33330.25000.0000  plane waves:  27614
 k-point 27 :  0.41670.25000.0000  plane waves:  27605
 k-point 28 :  0.50000.25000.0000  plane waves:  27594
 k-point 29 :  0.00000.33330.0000  plane waves:  27614
 k-point 30 :  0.08330.33330.0000  plane waves:  27632
 k-point 31 :  0.16670.33330.0000  plane waves:  27613
 k-point 32 :  0.25000.33330.0000  plane waves:  27614
 k-point 33 :  0.33330.33330.0000  plane waves:  27630
 k-point 34 :  0.41670.33330.0000  plane waves:  27620
 k-point 35 :  0.50000.33330.0000  plane waves:  27610
 k-point 36 :  0.00000.41670.0000  plane waves:  27590
 k-point 37 :  0.08330.41670.0000  plane waves:  27598
 k-point 38 :  0.16670.41670.0000  plane waves:  27602
 k-point 39 :  0.25000.41670.0000  plane waves:  27605
 k-point 40 :  0.33330.41670.0000  plane waves:  27620
 k-point 41 :  0.41670.41670.0000  plane waves:  27636
 k-point 42 :  0.50000.41670.0000  plane waves:  27646
 k-point 43 :  0.00000.50000.0000  plane waves:  27582
 k-point 44 :  0.08330.50000.0000  plane waves:  27590
 k-point 45 :  0.16670.50000.0000  plane waves:  27610
 k-point 46 :  0.25000.50000.0000  plane waves:  27594
 k-point 47 :  0.33330.50000.0000  plane waves:  27610
 k-point 48 :  0.41670.50000.0000  plane waves:  27646
 k-point 49 :  0.50000.50000.0000  plane waves:  27676
 k-point 50 :  0.00000.08330.0833  plane waves:  27617
 k-point 51 :  0.08330.08330.0833  plane waves:  27642
 k-point 52 :  0.16670.08330.0833  plane waves:  27645
 k-point 53 :  0.25000.08330.0833  plane waves:  27617
 k-point 54 :  0.33330.08330.0833  plane waves:  27639
 k-point 55 :  0.41670.08330.0833  plane waves:  27613
 k-point 56 :  0.50000.08330.0833  plane waves:  27602
 k-point 57 :  0.00000.16670.0833  plane waves:  27651
 k-point 58 :  0.08330.16670.0833  plane waves:  27645
 k-point 59 :  0.16670.16670.0833  plane waves:  27629
 k-point 60 :  0.25000.16670.0833  plane waves:  27639
 k-point 61 :  0.33330.16670.0833  plane waves:  27597
 k-point 62 :  0.41670.16670.0833  plane waves:  27612
 k-point 63 :  0.50000.16670.0833  plane waves:  27606
 k-point 64 :  0.00000.25000.0833  plane waves:  27643
 k-point 65 :  0.08330.25000.0833  plane waves:  27617
 k-point 66 :  0.16670.25000.0833  plane waves:  27639
 k-point 67 :  0.25000.25000.0833  plane waves:  27614
 k-point 68 :  0.33330.25000.0833  plane waves:  27615
 k-point 69 :  0.41670.25000.0833  plane waves:  27598
 k-point 70 :  0.50000.25000.0833  plane waves:  27592
 k-point 71 :  0.00000.33330.0833  plane waves:  27632
 k-point 72 :  0.08330.33330.0833  plane waves:  27639
 k-point 73 :  0.16670.33330.0833  plane waves:  27597
 k-point 74 :  0.25000.33330.0833  plane waves:  27615
 k-point 75 :  0.33330.33330.0833  plane waves:  27632
 k-point 76 :  0.41670.33330.0833  plane waves:  27640
 k-point 77 :  0.50000.33330.0833  plane waves:  27618
 k-point 78 :  0.00000.41670.0833  plane waves:  27598
 k-point 79 :  0.08330.41670.0833  plane waves:  27613
 k-point 80 :  0.16670.41670.0833  plane waves:  27612
 k-point 81 :  0.25000.41670.0833  plane waves:  27598
 k-point 82 :  0.33330.41670.0833  plane waves:  27640
 k-point 83 :  0.41670.41670.0833  plane waves:  27633
 k-point 84 :  0.50000.41670.0833  plane waves:  27632
 k-point 85 :  0.00000.50000.0833  plane waves:  27590
 k-point 86 :  0.08330.50000.0833  plane waves:  27602
 k-point 87 :  0.16670.50000.0833  plane waves:  27606
 k-point 88 :  0.25000.50000.0833  plane waves:  27592
 k-point 89 :  0.33330.50000.0833  plane waves:  27618
 k-point 90 :  0.41670.50000.0833  plane waves:  27632
 k-point 91 :  0.50000.50000.0833  plane waves:  27636
 k-point 92 :  0.00000.16670.1667  plane waves:  27651
 k-point 93 :  0.08330.16670.1667  plane waves:  27629
 k-point 94 :  0.16670.16670.1667  plane waves:  27648
 k-point 95 :  0.25000.16670.1667  plane waves:  27623
 k-point 96 :  0.33330.16670.1667  plane waves:  27602
 k-point 97 :  0.41670.16670.1667  plane waves:  27607
 k-point 98 :  0.50000.16670.1667  plane waves:  27556
 k-point 99 :  0.00000.25000.1667  plane waves:  27647
 k-point ** :  0.08330.25000.1667  plane waves:  27639
 k-point ** :  0.16670.25000.1667  plane waves:  27623
 k-point ** :  0.25000.25000.1667  plane waves:  27603
 k-point ** :  0.33330.25000.1667  plane waves:  27611
 k-point ** :  0.41670.25000.1667  plane waves:  27614
 k-point ** :  0.50000.25000.1667  plane waves:  27596
 k-point ** :  0.00000.33330.1667  plane waves:  27613
 k-point ** :  0.08330.33330.1667  plane waves:  27597
 k-point ** :  0.16670.33330.1667  plane waves:  27602
 k-point ** :  0.25000.33330.1667  plane waves:  27611
 k-point ** :  0.33330.33330.1667  plane waves:  27609
 k-point ** :  0.41670.33330.1667  plane waves:  27620
 k-point ** :  0.50000.33330.1667  plane waves:  27630
 k-point ** :  0.00000.41670.1667  plane waves:  27602
 k-point ** :  0.08330.41670.1667  plane waves:  27612
 k-point ** :  0.16670.41670.1667  plane waves:  27607
 k-point ** :  0.25000.41670.1667  plane waves:  27614
 k-point ** :  0.33330.41670.1667  plane waves:  27620
 k-point ** :  0.41670.41670.1667  plane waves:  27627
 k-point ** :  0.50000.41670.1667  plane waves:  27634
 k-point ** :  0.00000.50000.1667  plane waves:  27610
 k-point ** :  0.08330.50000.1667  plane waves:  27606
 k-point ** :  0.16670.50000.1667  plane waves:  27556
 k-point ** :  0.25000.50000.1667  plane waves:  27596
 k-point ** :  0.33330.50000.1667  plane waves:  27630
 k-point ** :  0.41670.50000.1667  plane waves:  27634
 k-point ** :  0.50000.50000.1667  plane waves:  27616
 k-point ** :  0.00000.25000.2500  plane waves:  27631
 k-point ** :  0.08330.25000.2500  plane waves:  27614
 k-point ** :  0.16670.25000.2500  plane waves:  27603
 k-point ** :  0.25000.25000.2500  plane waves:  27574
 k-point ** :  0.33330.25000.2500  plane waves:  27602
 k-point ** :  0.41670.25000.2500  plane waves:  27592
 k-point ** :  0.50000.25000.2500  plane waves:  27604
 k-point ** :  0.00000.33330.2500  plane waves:  27614
 k-point ** :  0.08330.33330.2500  plane waves:  27615
 k-point ** :  0.16670.33330.2500  plane waves:  27611
 k-point ** :  0.25000.33330.2500  plane waves:  27602
 k-point ** :  0.33330.33330.2500  plane waves:  27611
 k-point ** :  0.41670.33330.2500  plane waves:  27609
 k-point ** :  0.50000.33330.2500  plane waves:  27618
 k-point ** :  0.00000.41670.2500  plane waves:  27605
 k-point ** :  0.08330.41670.2500  plane waves:  27598
 k-point ** :  0.16670.41670.2500  plane waves:  27614
 k-point ** :  0.25000.41670.2500  plane waves:  27592
 k-point ** :  0.33330.41670.2500  plane waves:  27609
 k-point ** :  0.41670.41670.2500  plane waves:  27620
 k-point ** :  0.50000.41670.2500  plane waves:  27636
 k-point ** :  0.00000.50000.2500  plane waves:  27594
 k-point ** :  0.08330.50000.2500  plane waves:  27592
 k-point ** :  0.16670.50000.2500  plane waves:  27596
 k-point ** :  0.25000.50000.2500  plane waves:  27604
 k-point ** :  0.33330.50000.2500  plane waves:  27618
 k-point ** :  0.41670.50000.2500  plane waves:  27636
 k-point ** :  0.50000.50000.2500  plane waves:  27696
 k-point ** :  0.00000.33330.3333  plane waves:  27630
 k-point ** :  0.08330.33330.3333  plane waves:  27632
 k-point ** :  0.16670.33330.3333  plane waves:  27609
 k-point ** :  0.25000.33330.3333  plane waves:  27611
 k-point ** :  0.33330.33330.3333  plane waves:  27601
 k-point ** :  0.41670.33330.3333  plane waves:  27642
 k-point ** :  0.50000.33330.3333  plane waves:  27626
 k-point ** :  0.00000.41670.3333  plane waves:  27620
 k-point ** :  0.08330.41670.3333  plane waves:  27640
 k-point ** :  0.16670.41670.3333  plane waves:  27620
 k-point ** :  0.25000.41670.3333  plane waves:  27609
 k-point ** :  0.33330.41670.3333  plane waves:  27642
 k-point ** :  0.41670.41670.3333  plane waves:  27660
 k-point ** :  0.50000.41670.3333  plane waves:  27658
 k-point ** :  0.00000.50000.3333  plane waves:  27610
 k-point ** :  0.08330.50000.3333  plane waves:  27618
 k-point ** :  0.16670.50000.3333  plane waves:  27630
 k-point ** :  0.25000.50000.3333  plane waves:  27618
 k-point ** :  0.33330.50000.3333  plane waves:  27626
 k-point ** :  0.41670.50000.3333  plane waves:  27658
 k-point ** :  0.50000.50000.3333  plane waves:  27672
 k-point ** :  0.00000.41670.4167  plane waves:  27636
 k-point ** :  0.08330.41670.4167  plane waves:  27633
 k-point ** :  0.16670.41670.4167  plane waves:  27627
 k-point ** :  0.25000.41670.4167  plane waves:  27620
 k-point ** :  0.33330.41670.4167  plane waves:  27660
 k-point ** :  0.41670.41670.4167  plane waves:  27637
 k-point ** :  0.50000.41670.4167  plane waves:  27632
 k-point ** :  0.00000.50000.4167  plane waves:  27646
 k-point ** :  0.08330.50000.4167  plane waves:  27632
 k-point ** :  0.16670.50000.4167  plane waves:  27634
 k-point ** :  0.25000.50000.4167  plane waves:  27636
 k-point ** :  0.33330.50000.4167  plane waves:  27658
 k-point ** :  0.41670.50000.4167  plane waves:  27632
 k-point ** :  0.50000.50000.4167  plane waves:  27640
 k-point ** :  0.00000.50000.5000  plane waves:  27676
 k-point ** :  0.08330.50000.5000  plane waves:  27636
 k-point ** :  0.16670.50000.5000  plane waves:  27616
 k-point ** :  0.25000.50000.5000  plane waves:  27696
 k-point ** :  0.33330.50000.5000  plane waves:  27672
 k-point ** :  0.41670.50000.5000  plane waves:  27640
 k-point ** :  0.50000.50000.5000  plane waves:  27736

 maximum and minimum number of plane-waves per node :  27736 27556

 maximum number of plane-waves:  27736
 maximal index in each direction: 
   IXMAX= 18   IYMAX= 18   IZMAX= 18
   IXMIN=-19   IYMIN=-19   IZMIN=-19

 NGX is ok and might be reduce to  76
 NGY is ok and might be reduce to  76
 NGZ is ok and might be reduce to  76

 parallel 3dFFT wavefunction:
    minimum data exchange during FFTs selected (reduces bandwidth)
 parallel 3dFFT charge:
    minimum data exchange during FFTs selected (reduces bandwidth)

 For storing wavefunctions 5890.31 MBYTES are necessary
 For predicting wavefunctions   71.00 MBYTES are necessary
Broyden mixing: mesh for mixing (old mesh)
   NGX = 37   NGY = 37   NGZ = 37
  (NGX  =160   NGY  =160   NGZ  =160)
 gives a total of  50653 points
 initial charge density was supplied:
 charge density of overlapping atoms calculated
 number of electron   96.0000000 magnetization 
 keeping initial charge density in first step


--------------------------------------------------------------------------------------------------------


 Maximum index for augmentation-charges        65271 (set IRDMAX)


--------------------------------------------------------------------------------------------------------


 First call to EWALD:  gamma=   0.211
 Maximum number of real-space cells 3x 3x 3
 Maximum number of reciprocal cells 3x 3x 3

    FEWALD:  VPU time    0.01: CPU time    0.01


----------------------------------------- Iteration    1(   1)  ---------------------------------------


    POTLOK:  VPU time    3.36: CPU time    3.37
    SETDIJ:  VPU time    3.02: CPU time    3.03
    EDDAV :  VPU time 2319.01: CPU time 2326.14
    DOS   :  VPU time   -0.00: CPU time   -0.00
    ------------------------------------------
      LOOP:  VPU time 2325.43: CPU time 2332.58

 eigenvalue-minimisations  : 26656
 total energy-change (2. order) : 0.1652239E+03  (-0.4108497E+04)
 number of electron   96.0000000 magnetization 
 augmentation part    96.0000000 magnetization 

 Free energy of the ion-electron system (eV)
  ---------------------------------------------------
  alpha Z        PSCENC =        -5.80791868
  Ewald energy   TEWEN  =     -2264.22495736
  -1/2 Hartree   DENC   =        -5.08689961
  -V(xc)+E(xc)   XCENC  =      -846.12863885
  PAW double counting   =      1137.73615723     -115.16745734
  entropy T*S    EENTRO =        -0.00037871
  eigenvalues    EBANDS =       550.66891919
  atomic energy  EATOM  =      1713.23509266
  ---------------------------------------------------
  free energy    TOTEN  =       165.22391853 eV

  energy without entropy =      165.22429724  energy(sigma->0) =      165.22410788


--------------------------------------------------------------------------------------------------------




----------------------------------------- Iteration    1(   2)  ---------------------------------------


    EDDAV :  VPU time 2447.83: CPU time 2453.19
    DOS   :  VPU time    0.00: CPU time   -0.00
    ------------------------------------------
      LOOP:  VPU time 2447.88: CPU time 2453.24

 eigenvalue-minimisations  : 31060
 total energy-change (2. order) :-0.2666964E+03  (-0.2493271E+03)
 number of electron   96.0000000 magnetization 
 augmentation part    96.0000000 magnetization 

 Free energy of the ion-electron system (eV)
  ---------------------------------------------------
  alpha Z        PSCENC =        -5.80791868
  Ewald energy   TEWEN  =     -2264.22495736
  -1/2 Hartree   DENC   =        -5.08689961
  -V(xc)+E(xc)   XCENC  =      -846.12863885
  PAW double counting   =      1137.73615723     -115.16745734
  entropy T*S    EENTRO =        -0.00063346
  eigenvalues    EBANDS =       283.97277489
  atomic energy  EATOM  =      1713.23509266
  ---------------------------------------------------
  free energy    TOTEN  =      -101.47248052 eV

  energy without entropy =     -101.47184706  energy(sigma->0) =     -101.47216379


--------------------------------------------------------------------------------------------------------




----------------------------------------- Iteration    1(   3)  ---------------------------------------


    EDDAV :  VPU time 2645.38: CPU time 2646.17
    DOS   :  VPU time   -0.00: CPU time   -0.00
    ------------------------------------------
      LOOP:  VPU time 2645.44: CPU time 2646.22

 eigenvalue-minimisations  : 33456
 total energy-change (2. order) :-0.1707104E+02  (-0.1611578E+02)
 number of electron   96.0000000 magnetization 
 augmentation part    96.0000000 magnetization 

 Free energy of the ion-electron system (eV)
  ---------------------------------------------------
  alpha Z        PSCENC =        -5.80791868
  Ewald energy   TEWEN  =     -2264.22495736
  -1/2 Hartree   DENC   =        -5.08689961
  -V(xc)+E(xc)   XCENC  =      -846.12863885
  PAW double counting   =      1137.73615723     -115.16745734
  entropy T*S    EENTRO =        -0.00062274
  eigenvalues    EBANDS =       266.90172418
  atomic energy  EATOM  =      1713.23509266
  ---------------------------------------------------
  free energy    TOTEN  =      -118.54352051 eV

  energy without entropy =     -118.54289776  energy(sigma->0) =     -118.54320914


--------------------------------------------------------------------------------------------------------




----------------------------------------- Iteration    1(   4)  ---------------------------------------


    EDDAV :  VPU time 2600.65: CPU time 2601.43
    DOS   :  VPU time    0.00: CPU time   -0.00
    ------------------------------------------
      LOOP:  VPU time 2600.70: CPU time 2601.51

 eigenvalue-minimisations  : 31548
 total energy-change (2. order) :-0.4360847E+00  (-0.4303538E+00)
 number of electron   96.0000000 magnetization 
 augmentation part    96.0000000 magnetization 

 Free energy of the ion-electron system (eV)
  ---------------------------------------------------
  alpha Z        PSCENC =        -5.80791868
  Ewald energy   TEWEN  =     -2264.22495736
  -1/2 Hartree   DENC   =        -5.08689961
  -V(xc)+E(xc)   XCENC  =      -846.12863885
  PAW double counting   =      1137.73615723     -115.16745734
  entropy T*S    EENTRO =        -0.00068694
  eigenvalues    EBANDS =       266.46570364
  atomic energy  EATOM  =      1713.23509266
  ---------------------------------------------------
  free energy    TOTEN  =      -118.97960526 eV

  energy without entropy =     -118.97891831  energy(sigma->0) =     -118.97926178


--------------------------------------------------------------------------------------------------------




----------------------------------------- Iteration    1(   5)  ---------------------------------------


    EDDAV :  VPU time 2613.90: CPU time 2614.70
    DOS   :  VPU time    0.00: CPU time   -0.00
    CHARGE:  VPU time  169.34: CPU time  169.39
    MIXING:  VPU time    0.07: CPU time    0.07
    ------------------------------------------
      LOOP:  VPU time 2783.36: CPU time 2784.22

 eigenvalue-minimisations  : 31824
 total energy-change (2. order) :-0.5732690E-02  (-0.5722584E-02)
 number of electron   96.0000000 magnetization 
 augmentation part    -1.2712534 magnetization 

 Broyden mixing:
  rms(total) = 0.50118E+00    rms(broyden)= 0.50118E+00
  rms(prec ) = 0.73104E+00
  weight for this iteration     100.00

 Free energy of the ion-electron system (eV)
  ---------------------------------------------------
  alpha Z        PSCENC =        -5.80791868
  Ewald energy   TEWEN  =     -2264.22495736
  -1/2 Hartree   DENC   =        -5.08689961
  -V(xc)+E(xc)   XCENC  =      -846.12863885
  PAW double counting   =      1137.73615723     -115.16745734
  entropy T*S    EENTRO =        -0.00069046
  eigenvalues    EBANDS =       266.45997446
  atomic energy  EATOM  =      1713.23509266
  ---------------------------------------------------
  free energy    TOTEN  =      -118.98533795 eV

  energy without entropy =     -118.98464749  energy(sigma->0) =     -118.98499272


--------------------------------------------------------------------------------------------------------




----------------------------------------- Iteration    1(   6)  ---------------------------------------


    POTLOK:  VPU time    3.18: CPU time    3.19
    SETDIJ:  VPU time    2.70: CPU time    2.70
    EDDAV :  VPU time 2541.08: CPU time 2543.38
    DOS   :  VPU time    0.00: CPU time   -0.00
    CHARGE:  VPU time  168.03: CPU time  168.16
    MIXING:  VPU time    0.07: CPU time    0.07
    ------------------------------------------
      LOOP:  VPU time 2715.11: CPU time 2717.56

 eigenvalue-minimisations  : 30800
 total energy-change (2. order) : 0.3922829E+00  (-0.6816010E-02)
 number of electron   96.0000000 magnetization 
 augmentation part    -1.2914279 magnetization 

 Broyden mixing:
  rms(total) = 0.31072E+00    rms(broyden)= 0.31072E+00
  rms(prec ) = 0.45480E+00
  weight for this iteration     100.00

 eigenvalues of (default mixing * dielectric matrix)
  average eigenvalue GAMMA=   2.6214
  2.6214

 Free energy of the ion-electron system (eV)
  ---------------------------------------------------
  alpha Z        PSCENC =        -5.80791868
  Ewald energy   TEWEN  =     -2264.22495736
  -1/2 Hartree   DENC   =        -3.83066806
  -V(xc)+E(xc)   XCENC  =      -845.29314763
  PAW double counting   =      1134.75125059     -112.08308421
  entropy T*S    EENTRO =        -0.00068414
  eigenvalues    EBANDS =       264.66106174
  atomic energy  EATOM  =      1713.23509266
  ---------------------------------------------------
  free energy    TOTEN  =      -118.59305509 eV

  energy without entropy =     -118.59237094  energy(sigma->0) =     -118.59271302


--------------------------------------------------------------------------------------------------------




----------------------------------------- Iteration    1(   7)  ---------------------------------------


    POTLOK:  VPU time    3.18: CPU time    3.19
    SETDIJ:  VPU time    2.78: CPU time    2.78
    EDDAV :  VPU time 2373.91: CPU time 2397.61
    DOS   :  VPU time    0.00: CPU time   -0.00
    CHARGE:  VPU time  166.76: CPU time  169.18
    MIXING:  VPU time    0.08: CPU time    0.08
    ------------------------------------------
      LOOP:  VPU time 2546.76: CPU time 2572.89

 eigenvalue-minimisations  : 29804
 total energy-change (2. order) : 0.2833476E+00  (-0.1968382E-01)
 number of electron   96.0000000 magnetization 
 augmentation part    -1.3289598 magnetization 

 Broyden mixing:
  rms(total) = 0.13569E-01    rms(broyden)= 0.13569E-01
  rms(prec ) = 0.16181E-01
  weight for this iteration     100.00

 eigenvalues of (default mixing * dielectric matrix)
  average eigenvalue GAMMA=   2.5039
  2.5039  2.5039

 Free energy of the ion-electron system (eV)
  ---------------------------------------------------
  alpha Z        PSCENC =        -5.80791868
  Ewald energy   TEWEN  =     -2264.22495736
  -1/2 Hartree   DENC   =        -3.13727732
  -V(xc)+E(xc)   XCENC  =      -843.50610788
  PAW double counting   =      1130.40634102     -107.63692987
  entropy T*S    EENTRO =        -0.00061004
  eigenvalues    EBANDS =       262.36266003
  atomic energy  EATOM  =      1713.23509266
  ---------------------------------------------------
  free energy    TOTEN  =      -118.30970744 eV

  energy without entropy =     -118.30909740  energy(sigma->0) =     -118.30940242


[...]
     64       8.7315      0.00000
     65       9.8460      0.00000
     66       9.8460      0.00000
     67       9.8461      0.00000
     68       9.8461      0.00000

 k-point 194 :       0.3333    0.5000    0.5000
  band No.  band energies     occupation 
      1      -2.2343      2.00000
      2      -2.2342      2.00000
      3      -2.2342      2.00000
      4      -2.2342      2.00000
      5      -1.5417      2.00000
      6      -1.5417      2.00000
      7      -1.5417      2.00000
      8      -1.5417      2.00000
      9       1.1975      2.00000
     10       1.1975      2.00000
     11       1.1975      2.00000
     12       1.1975      2.00000
     13       1.8722      2.00000
     14       1.8722      2.00000
     15       1.8722      2.00000
     16       1.8723      2.00000
     17       1.8723      2.00000
     18       1.8723      2.00000
     19       1.8723      2.00000
     20       1.8723      2.00000
     21       2.5470      2.00000
     22       2.5470      2.00000
     23       2.5470      2.00000
     24       2.5470      2.00000
     25       2.5470      2.00000
     26       2.5470      2.00000
     27       2.5470      2.00000
     28       2.5470      2.00000
     29       3.2087      2.00000
     30       3.2087      2.00000
     31       3.2087      2.00000
     32       3.2088      2.00000
     33       5.2187      2.00000
     34       5.2187      2.00000
     35       5.2187      2.00000
     36       5.2187      2.00000
     37       5.2187      2.00000
     38       5.2187      2.00000
     39       5.2187      2.00000
     40       5.2187      2.00000
     41       5.8758      2.00000
     42       5.8758      2.00000
     43       5.8758      2.00000
     44       5.8758      2.00000
     45       6.5361      2.00000
     46       6.5361      2.00000
     47       6.5361      2.00000
     48       6.5361      2.00000
     49       7.1788      0.00000
     50       7.1788      0.00000
     51       7.1789      0.00000
     52       7.1789      0.00000
     53       7.1789      0.00000
     54       7.1789      0.00000
     55       7.1789      0.00000
     56       7.1789      0.00000
     57       8.6510      0.00000
     58       8.6510      0.00000
     59       8.6510      0.00000
     60       8.6510      0.00000
     61       9.1502      0.00000
     62       9.1502      0.00000
     63       9.1502      0.00000
     64       9.1502      0.00000
     65       9.9406      0.00000
     66       9.9407      0.00000
     67       9.9407      0.00000
     68       9.9407      0.00000

 k-point 195 :       0.4167    0.5000    0.5000
  band No.  band energies     occupation 
      1      -2.1042      2.00000
      2      -2.1041      2.00000
      3      -2.1041      2.00000
      4      -2.1041      2.00000
      5      -1.7578      2.00000
      6      -1.7578      2.00000
      7      -1.7578      2.00000
      8      -1.7578      2.00000
      9       1.6626      2.00000
     10       1.6627      2.00000
     11       1.6627      2.00000
     12       1.6627      2.00000
     13       1.9989      2.00000
     14       1.9989      2.00000
     15       1.9989      2.00000
     16       1.9990      2.00000
     17       1.9990      2.00000
     18       1.9990      2.00000
     19       1.9990      2.00000
     20       1.9990      2.00000
     21       2.3364      2.00000
     22       2.3364      2.00000
     23       2.3364      2.00000
     24       2.3364      2.00000
     25       2.3364      2.00000
     26       2.3365      2.00000
     27       2.3365      2.00000
     28       2.3365      2.00000
     29       2.6696      2.00000
     30       2.6696      2.00000
     31       2.6696      2.00000
     32       2.6697      2.00000
     33       5.6724      2.00000
     34       5.6724      2.00000
     35       5.6724      2.00000
     36       5.6724      2.00000
     37       5.6724      2.00000
     38       5.6724      2.00000
     39       5.6724      2.00000
     40       5.6724      2.00000
     41       5.9998      2.00000
     42       5.9998      2.00000
     43       5.9998      2.00000
     44       5.9998      2.00000
     45       6.3300      2.00000
     46       6.3300      2.00000
     47       6.3300      2.00000
     48       6.3300      2.00000
     49       6.6540      2.00000
     50       6.6540      2.00000
     51       6.6540      2.00000
     52       6.6540      2.00000
     53       6.6540      2.00000
     54       6.6540      2.00000
     55       6.6541      2.00000
     56       6.6541      2.00000
     57       9.4172      0.00000
     58       9.4172      0.00000
     59       9.4172      0.00000
     60       9.4172      0.00000
     61       9.5940      0.00000
     62       9.5940      0.00000
     63       9.5940      0.00000
     64       9.5940      0.00000
     65      10.0619      0.00000
     66      10.0620      0.00000
     67      10.0620      0.00000
     68      10.0621      0.00000

 k-point 196 :       0.5000    0.5000    0.5000
  band No.  band energies     occupation 
      1      -1.9498      2.00000
      2      -1.9457      2.00000
      3      -1.9457      2.00000
      4      -1.9454      2.00000
      5      -1.9453      2.00000
      6      -1.9449      2.00000
      7      -1.9449      2.00000
      8      -1.9409      2.00000
      9       2.1437      2.00000
     10       2.1500      2.00000
     11       2.1500      2.00000
     12       2.1531      2.00000
     13       2.1532      2.00000
     14       2.1533      2.00000
     15       2.1536      2.00000
     16       2.1536      2.00000
     17       2.1537      2.00000
     18       2.1537      2.00000
     19       2.1537      2.00000
     20       2.1537      2.00000
     21       2.1537      2.00000
     22       2.1537      2.00000
     23       2.1538      2.00000
     24       2.1538      2.00000
     25       2.1538      2.00000
     26       2.1538      2.00000
     27       2.1542      2.00000
     28       2.1542      2.00000
     29       2.1544      2.00000
     30       2.1574      2.00000
     31       2.1574      2.00000
     32       2.1637      2.00000
     33       6.1456      2.00000
     34       6.1456      2.00000
     35       6.1472      2.00000
     36       6.1494      2.00000
     37       6.1506      2.00000
     38       6.1509      2.00000
     39       6.1510      2.00000
     40       6.1510      2.00000
     41       6.1512      2.00000
     42       6.1512      2.00000
     43       6.1512      2.00000
     44       6.1512      2.00000
     45       6.1512      2.00000
     46       6.1513      2.00000
     47       6.1513      2.00000
     48       6.1513      2.00000
     49       6.1515      2.00000
     50       6.1515      2.00000
     51       6.1515      2.00000
     52       6.1518      2.00000
     53       6.1531      2.00000
     54       6.1553      2.00000
     55       6.1568      2.00000
     56       6.1568      2.00000
     57      10.0608      0.00000
     58      10.0609      0.00000
     59      10.0611      0.00000
     60      10.0616      0.00000
     61      10.0630      0.00000
     62      10.0635      0.00000
     63      10.0636      0.00000
     64      10.0636      0.00000
     65      10.2078      0.00000
     66      10.2086      0.00000
     67      10.2092      0.00000
     68      10.2101      0.00000


--------------------------------------------------------------------------------------------------------


 soft charge-density along one line, spin component           1
         0         1         2         3         4         5         6         7         8         9
 total charge-density along one line
 
 pseudopotential strength for first ion, spin component:           1
  8.481  -0.004  -0.000  -0.000  -0.000  -0.000  -0.000  -0.000
 -0.004   0.000  -0.000  -0.000  -0.000   0.000   0.000   0.000
 -0.000  -0.000   1.983  -0.000  -0.000  -0.023   0.000   0.000
 -0.000  -0.000  -0.000   1.983  -0.000   0.000  -0.023   0.000
 -0.000  -0.000  -0.000  -0.000   1.983   0.000   0.000  -0.023
 -0.000   0.000  -0.023   0.000   0.000  -0.013   0.000   0.000
 -0.000   0.000   0.000  -0.023   0.000   0.000  -0.013   0.000
 -0.000   0.000   0.000   0.000  -0.023   0.000   0.000  -0.013
 total augmentation occupancy for first ion, spin component:           1
  1.379  -0.350  -0.000   0.000   0.001   0.000  -0.000  -0.001
 -0.350   0.364   0.000   0.000  -0.003   0.000  -0.000   0.001
 -0.000   0.000   0.641   0.001   0.006  -0.121  -0.001  -0.001
  0.000   0.000   0.001   0.654  -0.005  -0.001  -0.120  -0.000
  0.001  -0.003   0.006  -0.005   0.648  -0.001  -0.000  -0.120
  0.000   0.000  -0.121  -0.001  -0.001   0.026   0.000   0.000
 -0.000  -0.000  -0.001  -0.120  -0.000   0.000   0.026   0.000
 -0.001   0.001  -0.001  -0.000  -0.120   0.000   0.000   0.026


------------------------ aborting loop because EDIFF is reached ----------------------------------------




--------------------------------------------------------------------------------------------------------


    CHARGE:  VPU time  163.76: CPU time  163.88
    FORLOC:  VPU time    0.44: CPU time    0.44
    FORNL :  VPU time  288.88: CPU time  289.02
    STRESS:  VPU time 1202.74: CPU time 1203.41
    FORCOR:  VPU time    3.31: CPU time    3.32
    FORHAR:  VPU time    1.20: CPU time    1.20
    MIXING:  VPU time    0.08: CPU time    0.08


--------------------------------------------------------------------------------------------------------



  FREE ENERGIE OF THE ION-ELECTRON SYSTEM (eV)
  ---------------------------------------------------
  free  energy   TOTEN  =      -118.309624 eV

  energy  without entropy=     -118.309020  energy(sigma->0) =     -118.309322
 

  FORCE on cell =-STRESS in cart. coord.  units (eV/reduce length):
  Direction    X        Y        Z        XY       YZ       ZX
  --------------------------------------------------------------------------------------
  Alpha Z     -5.81     -5.81     -5.81
  Ewald     -754.75   -754.74   -754.74     -0.00      0.00      0.00
  Hartree      1.07      1.07      1.07     -0.00     -0.00     -0.00
  E(xc)     -264.77   -264.77   -264.77     -0.00     -0.00      0.00
  Local       -5.81     -5.81     -5.81     -0.00      0.00     -0.00
  n-local    593.28    593.97    592.60     -0.34     -0.08      0.19
  augment    -35.59    -35.59    -35.59      0.00      0.00      0.00
  Kinetic    447.09    439.47    454.71      5.37      0.73     -3.92
  -------------------------------------------------------------------------------------
  Total      -25.27    -25.27    -25.27     -0.00      0.00      0.00
  in kB      -68.36    -68.36    -68.36     -0.00      0.00      0.00
  external pressure =      -68.36 kB  Pullay stress =        0.00 kB


 VOLUME and BASIS-vectors are now :
 -----------------------------------------------------------------------------
  energy-cutoff  :      750.00
  volume of cell :      592.20
      direct lattice vectors                 reciprocal lattice vectors
     8.397597249  0.000000000  0.000000000     0.119081681  0.000000000  0.000000000
     0.000000000  8.397597249  0.000000000     0.000000000  0.119081681  0.000000000
     0.000000000  0.000000000  8.397597249     0.000000000  0.000000000  0.119081681

  length of vectors
     8.397597249  8.397597249  8.397597249     0.119081681  0.119081681  0.119081681


 FORCES acting on ions
    electron-ion (+dipol)            ewald-force                    non-local-force                 convergence-correction
 -----------------------------------------------------------------------------------------------
   0.341E+00 -.227E-13 -.221E-08   -.284E+00 0.411E-14 0.619E-14   -.850E-01 -.108E-18 -.186E-19   0.143E-08 0.104E-13 -.488E-14
   -.778E-01 -.426E-12 0.118E-08   0.750E-01 0.117E-14 0.737E-14   0.439E-02 0.000E+00 0.000E+00   -.630E-07 0.109E-13 -.371E-14
   0.241E-01 -.784E-13 0.295E-12   -.237E-01 0.483E-14 0.665E-14   -.566E-03 0.271E-19 0.000E+00   -.103E-05 -.108E-13 -.350E-14
   -.182E-01 0.514E-12 0.494E-12   0.187E-01 0.128E-14 0.138E-13   0.936E-04 0.271E-19 0.000E+00   0.113E-05 -.113E-13 -.281E-14
   0.241E-01 0.444E-14 -.501E-11   -.237E-01 -.522E-14 0.909E-15   -.566E-03 -.678E-19 0.000E+00   -.102E-05 0.107E-13 0.515E-14
   -.182E-01 0.338E-12 -.488E-11   0.187E-01 0.189E-14 0.113E-14   0.936E-04 0.000E+00 0.000E+00   0.113E-05 0.111E-13 0.403E-14
   0.941E-02 0.364E-13 0.171E-12   -.980E-02 0.522E-14 -.525E-14   0.515E-03 -.407E-19 0.000E+00   -.345E-06 -.111E-13 0.380E-14
   -.855E-02 -.201E-12 -.420E-14   0.917E-02 0.167E-14 -.881E-14   -.108E-02 -.318E-19 0.000E+00   0.464E-06 -.114E-13 0.314E-14
   0.431E-01 -.192E-03 0.192E-03   -.448E-01 0.168E-03 -.168E-03   0.426E-03 0.350E-04 -.350E-04   -.655E-06 -.154E-07 0.154E-07
   -.262E-01 0.656E-04 -.656E-04   0.252E-01 -.502E-04 0.502E-04   0.459E-03 -.136E-04 0.136E-04   0.726E-06 0.562E-09 -.552E-09
   0.431E-01 0.192E-03 0.192E-03   -.448E-01 -.168E-03 -.168E-03   0.426E-03 -.350E-04 -.350E-04   -.655E-06 0.154E-07 0.154E-07
   -.262E-01 -.656E-04 -.656E-04   0.252E-01 0.502E-04 0.502E-04   0.459E-03 0.136E-04 0.136E-04   0.726E-06 -.562E-09 -.552E-09
   0.431E-01 -.192E-03 -.192E-03   -.448E-01 0.168E-03 0.168E-03   0.426E-03 0.350E-04 0.350E-04   -.655E-06 -.154E-07 -.154E-07
   -.262E-01 0.656E-04 0.656E-04   0.252E-01 -.502E-04 -.502E-04   0.459E-03 -.136E-04 -.136E-04   0.726E-06 0.562E-09 0.552E-09
   0.431E-01 0.192E-03 -.192E-03   -.448E-01 -.168E-03 0.168E-03   0.426E-03 -.350E-04 0.350E-04   -.655E-06 0.154E-07 -.154E-07
   -.262E-01 -.656E-04 0.656E-04   0.252E-01 0.502E-04 -.502E-04   0.459E-03 0.136E-04 -.136E-04   0.726E-06 -.562E-09 0.552E-09
   -.424E-01 -.157E-15 0.749E-01   0.363E-01 0.538E-14 -.687E-01   0.103E-01 0.000E+00 -.103E-01   -.175E-07 0.113E-13 0.570E-06
   -.423E-01 -.391E-13 -.757E-01   0.360E-01 0.716E-14 0.693E-01   0.105E-01 0.339E-20 0.106E-01   -.102E-07 0.125E-13 -.541E-06
   -.669E-03 -.536E-14 0.584E-02   0.121E-02 0.102E-13 -.568E-02   -.576E-03 -.136E-19 0.438E-04   -.423E-07 -.118E-13 -.344E-06
   -.572E-03 0.355E-13 -.584E-02   0.110E-02 0.106E-13 0.569E-02   -.564E-03 -.169E-20 -.492E-04   -.699E-07 -.127E-13 0.332E-06
   -.424E-01 0.247E-15 -.749E-01   0.363E-01 0.583E-14 0.687E-01   0.103E-01 0.678E-20 0.103E-01   -.175E-07 0.949E-14 -.570E-06
   -.423E-01 -.486E-13 0.757E-01   0.360E-01 0.716E-14 -.693E-01   0.105E-01 0.000E+00 -.106E-01   -.102E-07 0.980E-14 0.541E-06
   -.669E-03 -.913E-14 -.584E-02   0.121E-02 0.994E-14 0.568E-02   -.576E-03 0.305E-19 -.438E-04   -.423E-07 -.100E-13 0.344E-06
   -.572E-03 -.192E-12 0.584E-02   0.110E-02 0.705E-14 -.569E-02   -.564E-03 0.000E+00 0.492E-04   -.699E-07 -.101E-13 -.332E-06
   -.424E-01 -.749E-01 0.226E-11   0.363E-01 0.687E-01 -.724E-14   0.103E-01 0.103E-01 -.678E-20   -.165E-07 -.574E-06 -.391E-14
   -.423E-01 0.757E-01 0.153E-11   0.360E-01 -.693E-01 0.204E-14   0.105E-01 -.106E-01 -.678E-20   -.924E-08 0.544E-06 -.578E-14
   -.424E-01 0.749E-01 0.225E-11   0.363E-01 -.687E-01 0.165E-14   0.103E-01 -.103E-01 0.000E+00   -.165E-07 0.574E-06 -.212E-14
   -.423E-01 -.757E-01 0.237E-11   0.360E-01 0.693E-01 0.737E-14   0.105E-01 0.106E-01 0.339E-20   -.924E-08 -.544E-06 -.313E-14
   -.669E-03 -.584E-02 -.331E-12   0.121E-02 0.568E-02 -.145E-14   -.576E-03 -.438E-04 0.508E-20   -.430E-07 0.341E-06 0.424E-14
   -.572E-03 0.584E-02 -.131E-12   0.110E-02 -.569E-02 -.739E-14   -.564E-03 0.492E-04 0.000E+00   -.706E-07 -.328E-06 0.605E-14
   -.669E-03 0.584E-02 -.326E-12   0.121E-02 -.568E-02 -.167E-14   -.576E-03 0.438E-04 0.000E+00   -.430E-07 -.341E-06 0.245E-14
   -.572E-03 -.584E-02 -.387E-12   0.110E-02 0.569E-02 -.739E-14   -.564E-03 -.492E-04 0.000E+00   -.706E-07 0.328E-06 0.341E-14
 -----------------------------------------------------------------------------------------------
   0.128E-05 0.615E-12 -.104E-08   0.566E-14 -.593E-15 0.386E-14   -.133E-05 0.000E+00 -.227E-17   -.232E-08 -.418E-16 -.608E-16
 
 
 POSITION                                       TOTAL-FORCE (eV/Angst)
 -----------------------------------------------------------------------------------
      2.10940      2.09940      0.00000        -0.027948      0.000000     -0.000000
      6.29820      2.09940      0.00000         0.001589      0.000000     -0.000000
      2.09940      6.29820      0.00000        -0.000219      0.000000     -0.000000
      6.29820      6.29820      0.00000         0.000531      0.000000     -0.000000
      2.09940      2.09940      4.19880        -0.000219      0.000000     -0.000000
      6.29820      2.09940      4.19880         0.000531     -0.000000     -0.000000
      2.09940      6.29820      4.19880         0.000120     -0.000000     -0.000000
      6.29820      6.29820      4.19880        -0.000465     -0.000000      0.000000
      2.09940      0.00000      2.09940        -0.001287      0.000010     -0.000010
      6.29820      0.00000      2.09940        -0.000587      0.000002     -0.000002
      2.09940      4.19880      2.09940        -0.001287     -0.000010     -0.000010
      6.29820      4.19880      2.09940        -0.000587     -0.000002     -0.000002
      2.09940      0.00000      6.29820        -0.001287      0.000010      0.000010
      6.29820      0.00000      6.29820        -0.000587      0.000002      0.000002
      2.09940      4.19880      6.29820        -0.001287     -0.000010      0.000010
      6.29820      4.19880      6.29820        -0.000587     -0.000002      0.000002
      0.00000      2.09940      2.09940         0.004182     -0.000000     -0.004058
      4.19880      2.09940      2.09940         0.004288     -0.000000      0.004201
      0.00000      6.29820      2.09940        -0.000038      0.000000      0.000199
      4.19880      6.29820      2.09940        -0.000037      0.000000     -0.000197
      0.00000      2.09940      6.29820         0.004182      0.000000      0.004058
      4.19880      2.09940      6.29820         0.004288     -0.000000     -0.004201
      0.00000      6.29820      6.29820        -0.000038      0.000000     -0.000199
      4.19880      6.29820      6.29820        -0.000037     -0.000000      0.000197
      0.00000      0.00000      0.00000         0.004182      0.004058      0.000000
      4.19880      0.00000      0.00000         0.004288     -0.004201     -0.000000
      0.00000      4.19880      0.00000         0.004182     -0.004058     -0.000000
      4.19880      4.19880      0.00000         0.004288      0.004201      0.000000
      0.00000      0.00000      4.19880        -0.000038     -0.000199     -0.000000
      4.19880      0.00000      4.19880        -0.000037      0.000197     -0.000000
      0.00000      4.19880      4.19880        -0.000038      0.000199     -0.000000
      4.19880      4.19880      4.19880        -0.000037     -0.000197      0.000000
 -----------------------------------------------------------------------------------
    total drift:                               -0.000000      0.000000     -0.000000


--------------------------------------------------------------------------------------------------------



 mean value of Nose-termostat <S>:     1.000 mean value of <T> :     0.000
 mean temperature <T/S>/<1/S>  :     0.000

     LOOP+:  VPU time39444.17: CPU time39532.00
  
  
 General timing and accounting informations for this job:
 ========================================================
  
                  Total CPU time used (sec):    39700.720
                            User time (sec):    38742.506
                          System time (sec):      958.213
                         Elapsed time (sec):    39791.488
  
                   Maximum memory used (kb):     4001988.
                   Average memory used (kb):           0.
  
                          Minor page faults:       455800
                          Major page faults:            0
                 Voluntary context switches:          914
