   4   4   0   0
  0.1548436E+02  0.3956560E-09  0.3956560E-09  0.3956560E-09  0.5000000E-15
  1.000000000000000E-004
  CAR 
 unknown system                          
     21.55905200     -4.06664072  301      8.66270825      1.00000000
     -4.067  0.0000E+00  0.0000E+00
     -3.981  0.0000E+00  0.0000E+00
     -3.896  0.0000E+00  0.0000E+00
     -3.810  0.0000E+00  0.0000E+00
     -3.725  0.0000E+00  0.0000E+00
     -3.640  0.0000E+00  0.0000E+00
     -3.554  0.0000E+00  0.0000E+00
     -3.469  0.0000E+00  0.0000E+00
     -3.383  0.0000E+00  0.0000E+00
     -3.298  0.0000E+00  0.0000E+00
     -3.212  0.0000E+00  0.0000E+00
     -3.127  0.0000E+00  0.0000E+00
     -3.042  0.0000E+00  0.0000E+00
     -2.956  0.7987E-16  0.6822E-17
     -2.871  0.1067E-01  0.9115E-03
     -2.785  0.1590E+00  0.1449E-01
     -2.700  0.8533E-01  0.2458E-01
     -2.615  0.2856E+00  0.4898E-01
     -2.529  0.2558E+00  0.7374E-01
     -2.444  0.1209E+00  0.8406E-01
     -2.358  0.3244E+00  0.1124E+00
     -2.273  0.5024E+00  0.1553E+00
     -2.187  0.1009E+00  0.1643E+00
     -2.102  0.7497E+00  0.2283E+00
     -2.017  0.1050E-01  0.2294E+00
     -1.931  0.5647E+00  0.2776E+00
     -1.846  0.4741E+00  0.3181E+00
     -1.760  0.2558E+00  0.3541E+00
     -1.675  0.6649E+00  0.4109E+00
     -1.589  0.1070E-03  0.4197E+00
     -1.504  0.5173E+00  0.4639E+00
     -1.419  0.7687E+00  0.5345E+00
     -1.333  0.3397E+00  0.5635E+00
     -1.248  0.7803E+00  0.6302E+00
     -1.162  0.4985E+00  0.6727E+00
     -1.077  0.1852E+00  0.6886E+00
     -0.992  0.9652E+00  0.7710E+00
     -0.906  0.6159E+00  0.8237E+00
     -0.821  0.2558E+00  0.8639E+00
     -0.735  0.7673E+00  0.9294E+00
     -0.650  0.2567E+00  0.9514E+00
     -0.564  0.1472E+01  0.1077E+01
     -0.479  0.2587E+00  0.1104E+01
     -0.394  0.1004E+01  0.1190E+01
     -0.308  0.5115E+00  0.1235E+01
     -0.223  0.8510E-01  0.1243E+01
     -0.137  0.8501E+00  0.1315E+01
     -0.052  0.5115E+00  0.1412E+01
      0.033  0.7696E+00  0.1478E+01
      0.119  0.1023E+01  0.1587E+01
      0.204  0.4688E+00  0.1627E+01
      0.290  0.5182E+00  0.1675E+01
      0.375  0.1010E+01  0.1761E+01
      0.461  0.1247E+00  0.1772E+01
      0.546  0.1665E+01  0.1914E+01
      0.631  0.3744E-01  0.1918E+01
      0.717  0.1024E+01  0.2007E+01
      0.802  0.1247E+01  0.2114E+01
      0.888  0.5313E+00  0.2162E+01
      0.973  0.1508E+01  0.2291E+01
      1.058  0.6644E-01  0.2297E+01
      1.144  0.8286E+00  0.2368E+01
      1.229  0.1605E+01  0.2505E+01
      1.315  0.2569E+00  0.2550E+01
      1.400  0.1484E+01  0.2677E+01
      1.486  0.9239E-02  0.2682E+01
      1.571  0.1328E+01  0.2795E+01
      1.656  0.7360E+00  0.2858E+01
      1.742  0.5116E+00  0.2949E+01
      1.827  0.1484E+01  0.3075E+01
      1.913  0.1058E-02  0.3102E+01
      1.998  0.1751E+01  0.3251E+01
      2.084  0.1378E+01  0.3372E+01
      2.169  0.4125E+00  0.3407E+01
      2.254  0.1129E+01  0.3504E+01
      2.340  0.4306E-03  0.3538E+01
      2.425  0.7409E+00  0.3602E+01
      2.511  0.1206E+01  0.3707E+01
      2.596  0.1032E+01  0.3795E+01
      2.681  0.2111E+01  0.3975E+01
      2.767  0.5188E-02  0.3992E+01
      2.852  0.1746E+01  0.4141E+01
      2.938  0.8198E+00  0.4215E+01
      3.023  0.1056E+01  0.4305E+01
      3.109  0.1799E+01  0.4459E+01
      3.194  0.0000E+00  0.4502E+01
      3.279  0.9875E+00  0.4586E+01
      3.365  0.1090E+01  0.4682E+01
      3.450  0.1212E+01  0.4786E+01
      3.536  0.1813E+01  0.4940E+01
      3.621  0.1941E-01  0.4962E+01
      3.706  0.1316E+01  0.5074E+01
      3.792  0.1784E+01  0.5228E+01
      3.877  0.4345E+00  0.5265E+01
      3.963  0.2237E+01  0.5485E+01
      4.048  0.9491E-03  0.5490E+01
      4.134  0.1667E+01  0.5633E+01
      4.219  0.1459E+01  0.5758E+01
      4.304  0.1012E+01  0.5872E+01
      4.390  0.1527E+01  0.6003E+01
      4.475  0.3205E+00  0.6031E+01
      4.561  0.1211E+01  0.6151E+01
      4.646  0.1190E+01  0.6266E+01
      4.732  0.1983E+01  0.6435E+01
      4.817  0.2647E-01  0.6443E+01
      4.902  0.8147E+00  0.6516E+01
      4.988  0.1680E+01  0.6659E+01
      5.073  0.1392E+01  0.6806E+01
      5.159  0.1210E+01  0.6943E+01
      5.244  0.1770E+01  0.7107E+01
      5.329  0.1083E+01  0.7201E+01
      5.415  0.1144E+01  0.7321E+01
      5.500  0.9546E+00  0.7432E+01
      5.586  0.1270E+01  0.7546E+01
      5.671  0.9255E+00  0.7625E+01
      5.757  0.1895E+01  0.7787E+01
      5.842  0.6972E+00  0.7848E+01
      5.927  0.2169E+01  0.8054E+01
      6.013  0.1051E+01  0.8144E+01
      6.098  0.1217E+01  0.8253E+01
      6.184  0.2218E+01  0.8444E+01
      6.269  0.1491E+01  0.8572E+01
      6.354  0.1282E+01  0.8685E+01
      6.440  0.7700E+00  0.8751E+01
      6.525  0.1618E+01  0.8921E+01
      6.611  0.2909E+00  0.8972E+01
      6.696  0.1266E+01  0.9080E+01
      6.782  0.1433E+01  0.9203E+01
      6.867  0.7881E+00  0.9281E+01
      6.952  0.2352E+01  0.9482E+01
      7.038  0.7668E+00  0.9569E+01
      7.123  0.2386E+01  0.9773E+01
      7.209  0.8718E+00  0.9854E+01
      7.294  0.9367E+00  0.9936E+01
      7.380  0.1279E+01  0.1007E+02
      7.465  0.9735E+00  0.1016E+02
      7.550  0.1638E+01  0.1031E+02
      7.636  0.1890E+01  0.1048E+02
      7.721  0.1267E+01  0.1061E+02
      7.807  0.5243E+00  0.1065E+02
      7.892  0.1945E+01  0.1082E+02
      7.977  0.8382E+00  0.1093E+02
      8.063  0.1269E+01  0.1104E+02
      8.148  0.1214E+01  0.1114E+02
      8.234  0.2383E+01  0.1137E+02
      8.319  0.9275E+00  0.1144E+02
      8.405  0.2105E+01  0.1164E+02
      8.490  0.1534E+01  0.1178E+02
      8.575  0.1168E+01  0.1188E+02
      8.661  0.1241E+01  0.1200E+02
      8.746  0.1659E+01  0.1215E+02
      8.832  0.6665E+00  0.1224E+02
      8.917  0.5943E+00  0.1230E+02
      9.002  0.1512E+01  0.1245E+02
      9.088  0.1291E+01  0.1256E+02
      9.173  0.1292E+01  0.1267E+02
      9.259  0.2519E+01  0.1288E+02
      9.344  0.2108E+01  0.1307E+02
      9.430  0.1649E+01  0.1324E+02
      9.515  0.1323E+01  0.1336E+02
      9.600  0.1239E+01  0.1347E+02
      9.686  0.4355E+00  0.1357E+02
      9.771  0.2182E+01  0.1376E+02
      9.857  0.2321E+01  0.1396E+02
      9.942  0.8747E+00  0.1405E+02
     10.027  0.5350E+00  0.1410E+02
     10.113  0.1630E+01  0.1425E+02
     10.198  0.2060E+01  0.1445E+02
     10.284  0.5781E+00  0.1456E+02
     10.369  0.1908E+01  0.1475E+02
     10.455  0.1515E+01  0.1490E+02
     10.540  0.1465E+01  0.1502E+02
     10.625  0.1152E+01  0.1515E+02
     10.711  0.1046E+01  0.1524E+02
     10.796  0.2077E+01  0.1542E+02
     10.882  0.1310E+01  0.1553E+02
     10.967  0.1056E+01  0.1566E+02
     11.053  0.1853E+01  0.1582E+02
     11.138  0.1820E+01  0.1597E+02
     11.223  0.1979E+01  0.1615E+02
     11.309  0.1521E+01  0.1628E+02
     11.394  0.2157E+01  0.1649E+02
     11.480  0.1020E+01  0.1658E+02
     11.565  0.2193E+01  0.1677E+02
     11.650  0.1664E+01  0.1692E+02
     11.736  0.2476E+01  0.1716E+02
     11.821  0.5859E+00  0.1721E+02
     11.907  0.2743E+01  0.1746E+02
     11.992  0.7497E+00  0.1752E+02
     12.078  0.9427E+00  0.1761E+02
     12.163  0.1919E+01  0.1777E+02
     12.248  0.1953E+01  0.1794E+02
     12.334  0.1731E+01  0.1813E+02
     12.419  0.1103E+01  0.1828E+02
     12.505  0.1410E+01  0.1842E+02
     12.590  0.2207E+01  0.1861E+02
     12.675  0.2453E+01  0.1883E+02
     12.761  0.1619E+01  0.1898E+02
     12.846  0.7604E+00  0.1906E+02
     12.932  0.1819E+01  0.1921E+02
     13.017  0.1061E+01  0.1932E+02
     13.103  0.3367E+01  0.1963E+02
     13.188  0.1403E+01  0.1979E+02
     13.273  0.1925E+01  0.1998E+02
     13.359  0.1517E+01  0.2012E+02
     13.444  0.2831E+01  0.2037E+02
     13.530  0.2555E+00  0.2040E+02
     13.615  0.1965E+01  0.2057E+02
     13.701  0.2499E+01  0.2079E+02
     13.786  0.2618E+00  0.2086E+02
     13.871  0.2920E+01  0.2111E+02
     13.957  0.1212E+01  0.2121E+02
     14.042  0.1328E+01  0.2134E+02
     14.128  0.1769E+01  0.2150E+02
     14.213  0.3198E+01  0.2180E+02
     14.298  0.2167E+01  0.2198E+02
     14.384  0.2052E+01  0.2217E+02
     14.469  0.1339E+01  0.2229E+02
     14.555  0.2139E+01  0.2247E+02
     14.640  0.2314E+01  0.2267E+02
     14.726  0.2879E+01  0.2295E+02
     14.811  0.2104E+01  0.2313E+02
     14.896  0.1658E+01  0.2328E+02
     14.982  0.1273E+01  0.2340E+02
     15.067  0.2030E+01  0.2359E+02
     15.153  0.1378E+01  0.2374E+02
     15.238  0.3040E+01  0.2404E+02
     15.323  0.2120E+01  0.2422E+02
     15.409  0.2050E+01  0.2440E+02
     15.494  0.3391E+01  0.2469E+02
     15.580  0.1260E+01  0.2480E+02
     15.665  0.1355E+01  0.2491E+02
     15.751  0.2203E+01  0.2511E+02
     15.836  0.1698E+01  0.2526E+02
     15.921  0.2954E+01  0.2551E+02
     16.007  0.1100E+01  0.2564E+02
     16.092  0.1551E+01  0.2580E+02
     16.178  0.2091E+01  0.2600E+02
     16.263  0.7689E+00  0.2607E+02
     16.348  0.3725E+01  0.2640E+02
     16.434  0.1607E+01  0.2659E+02
     16.519  0.2003E+01  0.2678E+02
     16.605  0.3591E+00  0.2682E+02
     16.690  0.2110E+01  0.2703E+02
     16.776  0.1782E+01  0.2718E+02
     16.861  0.1862E+01  0.2734E+02
     16.946  0.2488E+01  0.2756E+02
     17.032  0.2245E+01  0.2776E+02
     17.117  0.1518E+01  0.2790E+02
     17.203  0.2260E+01  0.2811E+02
     17.288  0.3535E+01  0.2841E+02
     17.374  0.9387E+00  0.2849E+02
     17.459  0.1278E+01  0.2864E+02
     17.544  0.2458E+01  0.2885E+02
     17.630  0.2643E+01  0.2907E+02
     17.715  0.7869E+00  0.2916E+02
     17.801  0.9656E+00  0.2926E+02
     17.886  0.3925E+00  0.2930E+02
     17.971  0.1893E+01  0.2946E+02
     18.057  0.3047E+01  0.2976E+02
     18.142  0.1193E+01  0.2988E+02
     18.228  0.1529E+01  0.3003E+02
     18.313  0.1082E+01  0.3013E+02
     18.399  0.1834E+01  0.3029E+02
     18.484  0.2560E+01  0.3051E+02
     18.569  0.2142E+00  0.3055E+02
     18.655  0.4729E+00  0.3059E+02
     18.740  0.1075E+01  0.3070E+02
     18.826  0.1420E+01  0.3086E+02
     18.911  0.1138E+01  0.3096E+02
     18.996  0.2491E+00  0.3098E+02
     19.082  0.1586E+01  0.3111E+02
     19.167  0.1026E+01  0.3124E+02
     19.253  0.1400E+01  0.3136E+02
     19.338  0.8474E+00  0.3143E+02
     19.424  0.1608E+01  0.3158E+02
     19.509  0.2349E-01  0.3160E+02
     19.594  0.1637E+01  0.3174E+02
     19.680  0.2540E+00  0.3177E+02
     19.765  0.7612E+00  0.3184E+02
     19.851  0.2558E+00  0.3186E+02
     19.936  0.3838E-08  0.3186E+02
     20.022  0.4699E+00  0.3190E+02
     20.107  0.4679E+00  0.3194E+02
     20.192  0.2369E-07  0.3194E+02
     20.278  0.2602E+00  0.3196E+02
     20.363  0.1661E+00  0.3198E+02
     20.449  0.2558E+00  0.3200E+02
     20.534  0.0000E+00  0.3200E+02
     20.619  0.0000E+00  0.3200E+02
     20.705  0.0000E+00  0.3200E+02
     20.790  0.0000E+00  0.3200E+02
     20.876  0.0000E+00  0.3200E+02
     20.961  0.0000E+00  0.3200E+02
     21.047  0.0000E+00  0.3200E+02
     21.132  0.0000E+00  0.3200E+02
     21.217  0.0000E+00  0.3200E+02
     21.303  0.0000E+00  0.3200E+02
     21.388  0.0000E+00  0.3200E+02
     21.474  0.0000E+00  0.3200E+02
     21.559  0.0000E+00  0.3200E+02
