 vasp.4.6.28 25Jul05 complex 
 executed on             LinuxIFC date 2016.10.19  17:43:49
 running on    8 nodes
 distr:  one band on    1 nodes,    8 groups


--------------------------------------------------------------------------------------------------------


 INCAR:
 POTCAR:   PAW_PBE Al 04Jan2001                   
 POTCAR:   PAW_PBE Al 04Jan2001                   
   VRHFIN =Al: s2p1                                                             
   LEXCH  = PE                                                                  
   EATOM  =    53.5387 eV,    3.9350 Ry                                         
                                                                                
   TITEL  = PAW_PBE Al 04Jan2001                                                
   LULTRA =        F    use ultrasoft PP ?                                      
   IUNSCR =        1    unscreen: 0-lin 1-nonlin 2-no                           
   RPACOR =    1.500    partial core radius                                     
   POMASS =   26.982; ZVAL   =    3.000    mass and valenz                      
   RCORE  =    1.900    outmost cutoff radius                                   
   RWIGS  =    2.650; RWIGS  =    1.402    wigner-seitz radius (au A)           
   ENMAX  =  240.300; ENMIN  =  180.225 eV                                      
   ICORE  =        2    local potential                                         
   LCOR   =        T    correct aug charges                                     
   LPAW   =        T    paw PP                                                  
   EAUG   =  291.052                                                            
   DEXC   =    -.041                                                            
   RMAX   =    2.974    core radius for proj-oper                               
   RAUG   =    1.300    factor for augmentation sphere                          
   RDEP   =    1.966    radius for radial grids                                 
   QCUT   =   -4.203; QGAM   =    8.405    optimization parameters              
                                                                                
   Description                                                                  
     l     E      TYP  RCUT    TYP  RCUT                                        
     0   .000     23  1.900                                                     
     0   .000     23  1.900                                                     
     1   .000     23  1.900                                                     
     1  1.000     23  1.900                                                     
     2   .000      7  1.900                                                     
  local pseudopotential read in
  partial core-charges read in
  atomic valenz-charges read in
  non local Contribution for L=           0  read in
    real space projection operators read in
  non local Contribution for L=           0  read in
    real space projection operators read in
  non local Contribution for L=           1  read in
    real space projection operators read in
  non local Contribution for L=           1  read in
    real space projection operators read in
    PAW grid and wavefunctions read in
 
   number of l-projection  operators is LMAX  =           4
   number of lm-projection operators is LMMAX =           8
 
 PAW_PBE Al 04Jan2001                   :
 energy of atom  1       EATOM=  -53.5387
 kinetic energy error for atom=    0.0003 (will be added to EATOM!!)
 
 EXHCAR: internal setup
 exchange correlation table for  LEXCH =        8
   RHO(1)=    0.500       N(1)  =     2000
   RHO(2)=  100.500       N(2)  =     4000
 
 POSCAR: Al                                      
  positions in direct lattice
  No initial velocities read in
 


--------------------------------------------------------------------------------------------------------


 ion  position               nearest neighbor table
   1  0.500  0.500  0.000-   2 2.80   3 2.80   4 2.80   2 2.80   3 2.80   2 2.80   4 2.80   2 2.80
                             3 2.80   4 2.80   3 2.80   4 2.80
   2  0.500  0.000  0.500-   1 2.80   3 2.80   4 2.80   1 2.80   4 2.80   1 2.80   3 2.80   1 2.80
                             3 2.80   4 2.80   4 2.80   3 2.80
   3  0.000  0.500  0.500-   1 2.80   2 2.80   4 2.80   1 2.80   4 2.80   2 2.80   4 2.80   4 2.80
                             1 2.80   2 2.80   1 2.80   2 2.80
   4  0.000  0.000  0.000-   1 2.80   2 2.80   3 2.80   2 2.80   3 2.80   1 2.80   3 2.80   3 2.80
                             1 2.80   2 2.80   2 2.80   1 2.80
 
  LATTYP: Found a simple cubic cell.
 ALAT       =     3.9565602423
  
  Lattice vectors:
  
 A1 = (   3.9565602423,   0.0000000000,   0.0000000000)
 A2 = (   0.0000000000,   3.9565602423,   0.0000000000)
 A3 = (   0.0000000000,   0.0000000000,   3.9565602423)
 Subroutine PRICEL returns following result:
 
  LATTYP: Found a face centered cubic cell.
 ALAT       =     3.9565602423
  
  Lattice vectors:
  
 A1 = (   1.9782801211,   1.9782801211,   0.0000000000)
 A2 = (   1.9782801211,   0.0000000000,  -1.9782801211)
 A3 = (   0.0000000000,   1.9782801211,  -1.9782801211)
 
   4 primitive cells build up your supercell.
 

Analysis of symmetry for initial positions (statically):

 Routine SETGRP: Setting up the symmetry group for a 
 simple cubic supercell.


 Subroutine GETGRP returns: Found 48 space group operations
 (whereof 48 operations were pure point group operations)
 out of a pool of 48 trial point group operations.


The static configuration has the point symmetry O_h .

Analysis of symmetry for dynamics (positions and initial velocities):

 Subroutine DYNSYM returns: Found 48 space group operations
 (whereof 48 operations were pure point group operations)
 out of a pool of 48 trial space group operations
 (whereof 48 operations were pure point group operations)
 and found also     4 'primitive' translations


The dynamic configuration has the point symmetry O_h .
 
 
 KPOINTS: Automatic mesh                          

Automatic generation of k-mesh.
 generate k-points for:  13  13  13
 
 Subroutine IBZKPT returns following result:
 ===========================================
 
 Found     84 irreducible k-points:
 
 Following reciprocal coordinates:
            Coordinates               Weight
  0.000000  0.000000  0.000000      1.000000
  0.076923  0.000000  0.000000      6.000000
  0.153846  0.000000  0.000000      6.000000
  0.230769  0.000000  0.000000      6.000000
  0.307692  0.000000  0.000000      6.000000
  0.384615  0.000000  0.000000      6.000000
  0.461538  0.000000  0.000000      6.000000
  0.076923  0.076923  0.000000     12.000000
  0.153846  0.076923  0.000000     24.000000
  0.230769  0.076923  0.000000     24.000000
  0.307692  0.076923  0.000000     24.000000
  0.384615  0.076923  0.000000     24.000000
  0.461538  0.076923  0.000000     24.000000
  0.153846  0.153846  0.000000     12.000000
  0.230769  0.153846  0.000000     24.000000
  0.307692  0.153846  0.000000     24.000000
  0.384615  0.153846  0.000000     24.000000
  0.461538  0.153846  0.000000     24.000000
  0.230769  0.230769  0.000000     12.000000
  0.307692  0.230769  0.000000     24.000000
  0.384615  0.230769  0.000000     24.000000
  0.461538  0.230769  0.000000     24.000000
  0.307692  0.307692  0.000000     12.000000
  0.384615  0.307692  0.000000     24.000000
  0.461538  0.307692  0.000000     24.000000
  0.384615  0.384615  0.000000     12.000000
  0.461538  0.384615  0.000000     24.000000
  0.461538  0.461538  0.000000     12.000000
  0.076923  0.076923  0.076923      8.000000
  0.153846  0.076923  0.076923     24.000000
  0.230769  0.076923  0.076923     24.000000
  0.307692  0.076923  0.076923     24.000000
  0.384615  0.076923  0.076923     24.000000
  0.461538  0.076923  0.076923     24.000000
  0.153846  0.153846  0.076923     24.000000
  0.230769  0.153846  0.076923     48.000000
  0.307692  0.153846  0.076923     48.000000
  0.384615  0.153846  0.076923     48.000000
  0.461538  0.153846  0.076923     48.000000
  0.230769  0.230769  0.076923     24.000000
  0.307692  0.230769  0.076923     48.000000
  0.384615  0.230769  0.076923     48.000000
  0.461538  0.230769  0.076923     48.000000
  0.307692  0.307692  0.076923     24.000000
  0.384615  0.307692  0.076923     48.000000
  0.461538  0.307692  0.076923     48.000000
  0.384615  0.384615  0.076923     24.000000
  0.461538  0.384615  0.076923     48.000000
  0.461538  0.461538  0.076923     24.000000
  0.153846  0.153846  0.153846      8.000000
  0.230769  0.153846  0.153846     24.000000
  0.307692  0.153846  0.153846     24.000000
  0.384615  0.153846  0.153846     24.000000
  0.461538  0.153846  0.153846     24.000000
  0.230769  0.230769  0.153846     24.000000
  0.307692  0.230769  0.153846     48.000000
  0.384615  0.230769  0.153846     48.000000
  0.461538  0.230769  0.153846     48.000000
  0.307692  0.307692  0.153846     24.000000
  0.384615  0.307692  0.153846     48.000000
  0.461538  0.307692  0.153846     48.000000
  0.384615  0.384615  0.153846     24.000000
  0.461538  0.384615  0.153846     48.000000
  0.461538  0.461538  0.153846     24.000000
  0.230769  0.230769  0.230769      8.000000
  0.307692  0.230769  0.230769     24.000000
  0.384615  0.230769  0.230769     24.000000
  0.461538  0.230769  0.230769     24.000000
  0.307692  0.307692  0.230769     24.000000
  0.384615  0.307692  0.230769     48.000000
  0.461538  0.307692  0.230769     48.000000
  0.384615  0.384615  0.230769     24.000000
  0.461538  0.384615  0.230769     48.000000
  0.461538  0.461538  0.230769     24.000000
  0.307692  0.307692  0.307692      8.000000
  0.384615  0.307692  0.307692     24.000000
  0.461538  0.307692  0.307692     24.000000
  0.384615  0.384615  0.307692     24.000000
  0.461538  0.384615  0.307692     48.000000
  0.461538  0.461538  0.307692     24.000000
  0.384615  0.384615  0.384615      8.000000
  0.461538  0.384615  0.384615     24.000000
  0.461538  0.461538  0.384615     24.000000
  0.461538  0.461538  0.461538      8.000000
 
 Following cartesian coordinates:
            Coordinates               Weight
  0.000000  0.000000  0.000000      1.000000
  0.019053  0.000000  0.000000      6.000000
  0.038106  0.000000  0.000000      6.000000
  0.057159  0.000000  0.000000      6.000000
  0.076212  0.000000  0.000000      6.000000
  0.095265  0.000000  0.000000      6.000000
  0.114318  0.000000  0.000000      6.000000
  0.019053  0.019053  0.000000     12.000000
  0.038106  0.019053  0.000000     24.000000
  0.057159  0.019053  0.000000     24.000000
  0.076212  0.019053  0.000000     24.000000
  0.095265  0.019053  0.000000     24.000000
  0.114318  0.019053  0.000000     24.000000
  0.038106  0.038106  0.000000     12.000000
  0.057159  0.038106  0.000000     24.000000
  0.076212  0.038106  0.000000     24.000000
  0.095265  0.038106  0.000000     24.000000
  0.114318  0.038106  0.000000     24.000000
  0.057159  0.057159  0.000000     12.000000
  0.076212  0.057159  0.000000     24.000000
  0.095265  0.057159  0.000000     24.000000
  0.114318  0.057159  0.000000     24.000000
  0.076212  0.076212  0.000000     12.000000
  0.095265  0.076212  0.000000     24.000000
  0.114318  0.076212  0.000000     24.000000
  0.095265  0.095265  0.000000     12.000000
  0.114318  0.095265  0.000000     24.000000
  0.114318  0.114318  0.000000     12.000000
  0.019053  0.019053  0.019053      8.000000
  0.038106  0.019053  0.019053     24.000000
  0.057159  0.019053  0.019053     24.000000
  0.076212  0.019053  0.019053     24.000000
  0.095265  0.019053  0.019053     24.000000
  0.114318  0.019053  0.019053     24.000000
  0.038106  0.038106  0.019053     24.000000
  0.057159  0.038106  0.019053     48.000000
  0.076212  0.038106  0.019053     48.000000
  0.095265  0.038106  0.019053     48.000000
  0.114318  0.038106  0.019053     48.000000
  0.057159  0.057159  0.019053     24.000000
  0.076212  0.057159  0.019053     48.000000
  0.095265  0.057159  0.019053     48.000000
  0.114318  0.057159  0.019053     48.000000
  0.076212  0.076212  0.019053     24.000000
  0.095265  0.076212  0.019053     48.000000
  0.114318  0.076212  0.019053     48.000000
  0.095265  0.095265  0.019053     24.000000
  0.114318  0.095265  0.019053     48.000000
  0.114318  0.114318  0.019053     24.000000
  0.038106  0.038106  0.038106      8.000000
  0.057159  0.038106  0.038106     24.000000
  0.076212  0.038106  0.038106     24.000000
  0.095265  0.038106  0.038106     24.000000
  0.114318  0.038106  0.038106     24.000000
  0.057159  0.057159  0.038106     24.000000
  0.076212  0.057159  0.038106     48.000000
  0.095265  0.057159  0.038106     48.000000
  0.114318  0.057159  0.038106     48.000000
  0.076212  0.076212  0.038106     24.000000
  0.095265  0.076212  0.038106     48.000000
  0.114318  0.076212  0.038106     48.000000
  0.095265  0.095265  0.038106     24.000000
  0.114318  0.095265  0.038106     48.000000
  0.114318  0.114318  0.038106     24.000000
  0.057159  0.057159  0.057159      8.000000
  0.076212  0.057159  0.057159     24.000000
  0.095265  0.057159  0.057159     24.000000
  0.114318  0.057159  0.057159     24.000000
  0.076212  0.076212  0.057159     24.000000
  0.095265  0.076212  0.057159     48.000000
  0.114318  0.076212  0.057159     48.000000
  0.095265  0.095265  0.057159     24.000000
  0.114318  0.095265  0.057159     48.000000
  0.114318  0.114318  0.057159     24.000000
  0.076212  0.076212  0.076212      8.000000
  0.095265  0.076212  0.076212     24.000000
  0.114318  0.076212  0.076212     24.000000
  0.095265  0.095265  0.076212     24.000000
  0.114318  0.095265  0.076212     48.000000
  0.114318  0.114318  0.076212     24.000000
  0.095265  0.095265  0.095265      8.000000
  0.114318  0.095265  0.095265     24.000000
  0.114318  0.114318  0.095265     24.000000
  0.114318  0.114318  0.114318      8.000000
 


--------------------------------------------------------------------------------------------------------




 Dimension of arrays:
   k-Points           NKPTS =     84   number of bands    NBANDS=     16
   number of dos      NEDOS =    301   number of ions     NIONS =      4
   non local maximal  LDIM  =      4   non local SUM 2l+1 LMDIM =      8
   total plane-waves  NPLWV =  27000
   max r-space proj   IRMAX =      1   max aug-charges    IRDMAX=  17164
   dimension x,y,z NGX =    30 NGY =   30 NGZ =   30
   dimension x,y,z NGXF=    60 NGYF=   60 NGZF=   60
   support grid    NGXF=    60 NGYF=   60 NGZF=   60
   ions per type =               4
 NGX,Y,Z   is equivalent  to a cutoff of  12.61, 12.61, 12.61 a.u.
 NGXF,Y,Z  is equivalent  to a cutoff of  25.21, 25.21, 25.21 a.u.


 I would recommend the setting:
   dimension x,y,z NGX =    29 NGY =   29 NGZ =   29
 SYSTEM =  unknown system                          
 POSCAR =  Al                                      

 Startparameter for this run:
   NWRITE =      2    write-flag & timer
   PREC   = accura    medium, high low
   ISTART =      0    job   : 0-new  1-cont  2-samecut
   ICHARG =      2    charge: 1-file 2-atom 10-const
   ISPIN  =      1    spin polarized calculation?
   LNONCOLLINEAR =      F non collinear calculations
   LSORBIT =      F    spin-orbit coupling
   INIWAV =      1    electr: 0-lowe 1-rand  2-diag
   LASPH  =      F    aspherical Exc in radial PAW
   METAGGA=      F    non-selfconsistent MetaGGA calc.

 Electronic Relaxation 1
   ENCUT  =  500.0 eV  36.75 Ry    6.06 a.u.   7.21  7.21  7.21*2*pi/ulx,y,z
   ENINI  =  500.0     initial cutoff
   ENAUG  =  291.1 eV  augmentation charge cutoff
   NELM   =     60;   NELMIN=  2; NELMDL=  0     # of ELM steps 
   EDIFF  = 0.1E-07   stopping-criterion for ELM
   LREAL  =      F    real-space projection
   LCOMPAT=      F    compatible to vasp.4.4
   LREAL_COMPAT= F    compatible to vasp.4.5.1-3
   GGA_COMPAT  = T    GGA compatible to vasp.4.4-vasp.4.6
   LMAXPAW     = -100 max onsite density
   LMAXMIX     =    2 max onsite mixed and CHGCAR
   VOSKOWN=      0    Vosko Wilk Nusair interpolation
   ROPT   =    0.00000
 Ionic relaxation
   EDIFFG = 0.1E-06   stopping-criterion for IOM
   NSW    =      0    number of steps for IOM
   NBLOCK =      1;   KBLOCK =      1    inner block; outer block 
   IBRION =     -1    ionic relax: 0-MD 1-quasi-New 2-CG
   NFREE  =      0    steps in history (QN), initial steepest desc. (CG)
   ISIF   =      2    stress and relaxation
   IWAVPR =     10    prediction:  0-non 1-charg 2-wave 3-comb
   ISYM   =      2    0-nonsym 1-usesym 2-fastsym
   LCORR  =      T    Harris-Foulkes like correction to forces

   POTIM  =   0.50    time-step for ionic-motion
   TEIN   =    0.0    initial temperature
   TEBEG  =    0.0;   TEEND  =   0.0 temperature during run
   SMASS  =  -3.00    Nose mass-parameter (am)
   estimated Nose-frequenzy (Omega)   =  0.10E-29 period in steps =****** mass=  -0.358E-27a.u.
   NPACO  =    256;   APACO  = 16.0  distance and # of slots for P.C.
   PSTRESS=    0.0 pullay stress

  Mass of Ions in am
   POMASS =  26.98
  Ionic Valenz
   ZVAL   =   3.00
  Atomic Wigner-Seitz radii
   RWIGS  =  -1.00
   NELECT =      12.0000    total number of electrons
   NUPDOWN=      -1.0000    fix difference up-down

 DOS related values:
   EMIN   =  10.00;   EMAX   =-10.00  energy-range for DOS
   ISMEAR =     0;   SIGMA  =   0.01  broadening in eV -4-tet -1-fermi 0-gaus

 Electronic relaxation 2 (details)
   IALGO  =     38    algorithm
   LDIAG  =      T    sub-space diagonalisation
   IMIX   =      4    mixing-type and parameters
     AMIX     =   0.40;   BMIX     =  1.00
     AMIX_MAG =   1.60;   BMIX_MAG =  1.00
     AMIN     =   0.10
     WC   =   100.;   INIMIX=   1;  MIXPRE=   1

 Intra band minimization:
   WEIMIN = 0.0000     energy-eigenvalue tresh-hold
   EBREAK =  0.25E-09  absolut break condition
   DEPER  =   0.30     relativ break condition  

   TIME   =   0.10     timestep for ELM

  volume/ion in A,a.u.               =      15.48       104.49
  Fermi-wavevector in a.u.,eV,Ry     =   0.947293 12.209368  0.897363

 Second variation
   LSECVAR=     F    do a second variation
 
 Write flags
   LWAVE  =      F    write WAVECAR
   LCHARG =      F    write CHGCAR
   LVTOT  =      F    write LOCPOT, local potential
   LELF   =      F    write electronic localiz. function (ELF)
   LORBIT =      0    0 simple, 1 ext, 2 COOP (PROOUT)


 Dipole corrections
   IDIPOL =      0    1-x, 2-y, 3-z
   LDIPOL =      F    correct potential



--------------------------------------------------------------------------------------------------------


 Static calculation
 charge density will be updated during run
 non-spin polarized calculation
 Variant of blocked Davidson
 Davidson routine will perform the subspace rotation
 performe sub-space diagonalisation
    after iterative eigenvector-optimisation
 modified Broyden-mixing scheme, WC =      100.0
 initial mixing is a Kerker type mixing with AMIX =  0.4000 and BMIX =      1.0000
 Hartree-type preconditioning will be used
 using additional bands           10
 reciprocal scheme for non local part
 use partial core corrections
 calculate Harris-corrections to forces 
   (improved forces if not selfconsistent)
 use gradient corrections 
 use of overlap-Matrix (Vanderbilt PP)
 Gauss-broadening in eV      SIGMA  =   0.01


--------------------------------------------------------------------------------------------------------


  energy-cutoff  :      500.00
  volume of cell :       61.94
      direct lattice vectors                 reciprocal lattice vectors
     3.956560242  0.000000000  0.000000000     0.252744793  0.000000000  0.000000000
     0.000000000  3.956560242  0.000000000     0.000000000  0.252744793  0.000000000
     0.000000000  0.000000000  3.956560242     0.000000000  0.000000000  0.252744793

  length of vectors
     3.956560242  3.956560242  3.956560242     0.252744793  0.252744793  0.252744793


 
 k-points in units of 2pi/SCALE and weight: Automatic mesh                          
   0.00000000  0.00000000  0.00000000       0.000
   0.01905307  0.00000000  0.00000000       0.003
   0.03810614  0.00000000  0.00000000       0.003
   0.05715921  0.00000000  0.00000000       0.003
   0.07621228  0.00000000  0.00000000       0.003
   0.09526535  0.00000000  0.00000000       0.003
   0.11431841  0.00000000  0.00000000       0.003
   0.01905307  0.01905307  0.00000000       0.005
   0.03810614  0.01905307  0.00000000       0.011
   0.05715921  0.01905307  0.00000000       0.011
   0.07621228  0.01905307  0.00000000       0.011
   0.09526535  0.01905307  0.00000000       0.011
   0.11431841  0.01905307  0.00000000       0.011
   0.03810614  0.03810614  0.00000000       0.005
   0.05715921  0.03810614  0.00000000       0.011
   0.07621228  0.03810614  0.00000000       0.011
   0.09526535  0.03810614  0.00000000       0.011
   0.11431841  0.03810614  0.00000000       0.011
   0.05715921  0.05715921  0.00000000       0.005
   0.07621228  0.05715921  0.00000000       0.011
   0.09526535  0.05715921  0.00000000       0.011
   0.11431841  0.05715921  0.00000000       0.011
   0.07621228  0.07621228  0.00000000       0.005
   0.09526535  0.07621228  0.00000000       0.011
   0.11431841  0.07621228  0.00000000       0.011
   0.09526535  0.09526535  0.00000000       0.005
   0.11431841  0.09526535  0.00000000       0.011
   0.11431841  0.11431841  0.00000000       0.005
   0.01905307  0.01905307  0.01905307       0.004
   0.03810614  0.01905307  0.01905307       0.011
   0.05715921  0.01905307  0.01905307       0.011
   0.07621228  0.01905307  0.01905307       0.011
   0.09526535  0.01905307  0.01905307       0.011
   0.11431841  0.01905307  0.01905307       0.011
   0.03810614  0.03810614  0.01905307       0.011
   0.05715921  0.03810614  0.01905307       0.022
   0.07621228  0.03810614  0.01905307       0.022
   0.09526535  0.03810614  0.01905307       0.022
   0.11431841  0.03810614  0.01905307       0.022
   0.05715921  0.05715921  0.01905307       0.011
   0.07621228  0.05715921  0.01905307       0.022
   0.09526535  0.05715921  0.01905307       0.022
   0.11431841  0.05715921  0.01905307       0.022
   0.07621228  0.07621228  0.01905307       0.011
   0.09526535  0.07621228  0.01905307       0.022
   0.11431841  0.07621228  0.01905307       0.022
   0.09526535  0.09526535  0.01905307       0.011
   0.11431841  0.09526535  0.01905307       0.022
   0.11431841  0.11431841  0.01905307       0.011
   0.03810614  0.03810614  0.03810614       0.004
   0.05715921  0.03810614  0.03810614       0.011
   0.07621228  0.03810614  0.03810614       0.011
   0.09526535  0.03810614  0.03810614       0.011
   0.11431841  0.03810614  0.03810614       0.011
   0.05715921  0.05715921  0.03810614       0.011
   0.07621228  0.05715921  0.03810614       0.022
   0.09526535  0.05715921  0.03810614       0.022
   0.11431841  0.05715921  0.03810614       0.022
   0.07621228  0.07621228  0.03810614       0.011
   0.09526535  0.07621228  0.03810614       0.022
   0.11431841  0.07621228  0.03810614       0.022
   0.09526535  0.09526535  0.03810614       0.011
   0.11431841  0.09526535  0.03810614       0.022
   0.11431841  0.11431841  0.03810614       0.011
   0.05715921  0.05715921  0.05715921       0.004
   0.07621228  0.05715921  0.05715921       0.011
   0.09526535  0.05715921  0.05715921       0.011
   0.11431841  0.05715921  0.05715921       0.011
   0.07621228  0.07621228  0.05715921       0.011
   0.09526535  0.07621228  0.05715921       0.022
   0.11431841  0.07621228  0.05715921       0.022
   0.09526535  0.09526535  0.05715921       0.011
   0.11431841  0.09526535  0.05715921       0.022
   0.11431841  0.11431841  0.05715921       0.011
   0.07621228  0.07621228  0.07621228       0.004
   0.09526535  0.07621228  0.07621228       0.011
   0.11431841  0.07621228  0.07621228       0.011
   0.09526535  0.09526535  0.07621228       0.011
   0.11431841  0.09526535  0.07621228       0.022
   0.11431841  0.11431841  0.07621228       0.011
   0.09526535  0.09526535  0.09526535       0.004
   0.11431841  0.09526535  0.09526535       0.011
   0.11431841  0.11431841  0.09526535       0.011
   0.11431841  0.11431841  0.11431841       0.004
 
 k-points in reciprocal lattice and weights: Automatic mesh                          
   0.00000000  0.00000000  0.00000000       0.000
   0.07692308  0.00000000  0.00000000       0.003
   0.15384615  0.00000000  0.00000000       0.003
   0.23076923  0.00000000  0.00000000       0.003
   0.30769231  0.00000000  0.00000000       0.003
   0.38461538  0.00000000  0.00000000       0.003
   0.46153846  0.00000000  0.00000000       0.003
   0.07692308  0.07692308  0.00000000       0.005
   0.15384615  0.07692308  0.00000000       0.011
   0.23076923  0.07692308  0.00000000       0.011
   0.30769231  0.07692308  0.00000000       0.011
   0.38461538  0.07692308  0.00000000       0.011
   0.46153846  0.07692308  0.00000000       0.011
   0.15384615  0.15384615  0.00000000       0.005
   0.23076923  0.15384615  0.00000000       0.011
   0.30769231  0.15384615  0.00000000       0.011
   0.38461538  0.15384615  0.00000000       0.011
   0.46153846  0.15384615  0.00000000       0.011
   0.23076923  0.23076923  0.00000000       0.005
   0.30769231  0.23076923  0.00000000       0.011
   0.38461538  0.23076923  0.00000000       0.011
   0.46153846  0.23076923  0.00000000       0.011
   0.30769231  0.30769231  0.00000000       0.005
   0.38461538  0.30769231  0.00000000       0.011
   0.46153846  0.30769231  0.00000000       0.011
   0.38461538  0.38461538  0.00000000       0.005
   0.46153846  0.38461538  0.00000000       0.011
   0.46153846  0.46153846  0.00000000       0.005
   0.07692308  0.07692308  0.07692308       0.004
   0.15384615  0.07692308  0.07692308       0.011
   0.23076923  0.07692308  0.07692308       0.011
   0.30769231  0.07692308  0.07692308       0.011
   0.38461538  0.07692308  0.07692308       0.011
   0.46153846  0.07692308  0.07692308       0.011
   0.15384615  0.15384615  0.07692308       0.011
   0.23076923  0.15384615  0.07692308       0.022
   0.30769231  0.15384615  0.07692308       0.022
   0.38461538  0.15384615  0.07692308       0.022
   0.46153846  0.15384615  0.07692308       0.022
   0.23076923  0.23076923  0.07692308       0.011
   0.30769231  0.23076923  0.07692308       0.022
   0.38461538  0.23076923  0.07692308       0.022
   0.46153846  0.23076923  0.07692308       0.022
   0.30769231  0.30769231  0.07692308       0.011
   0.38461538  0.30769231  0.07692308       0.022
   0.46153846  0.30769231  0.07692308       0.022
   0.38461538  0.38461538  0.07692308       0.011
   0.46153846  0.38461538  0.07692308       0.022
   0.46153846  0.46153846  0.07692308       0.011
   0.15384615  0.15384615  0.15384615       0.004
   0.23076923  0.15384615  0.15384615       0.011
   0.30769231  0.15384615  0.15384615       0.011
   0.38461538  0.15384615  0.15384615       0.011
   0.46153846  0.15384615  0.15384615       0.011
   0.23076923  0.23076923  0.15384615       0.011
   0.30769231  0.23076923  0.15384615       0.022
   0.38461538  0.23076923  0.15384615       0.022
   0.46153846  0.23076923  0.15384615       0.022
   0.30769231  0.30769231  0.15384615       0.011
   0.38461538  0.30769231  0.15384615       0.022
   0.46153846  0.30769231  0.15384615       0.022
   0.38461538  0.38461538  0.15384615       0.011
   0.46153846  0.38461538  0.15384615       0.022
   0.46153846  0.46153846  0.15384615       0.011
   0.23076923  0.23076923  0.23076923       0.004
   0.30769231  0.23076923  0.23076923       0.011
   0.38461538  0.23076923  0.23076923       0.011
   0.46153846  0.23076923  0.23076923       0.011
   0.30769231  0.30769231  0.23076923       0.011
   0.38461538  0.30769231  0.23076923       0.022
   0.46153846  0.30769231  0.23076923       0.022
   0.38461538  0.38461538  0.23076923       0.011
   0.46153846  0.38461538  0.23076923       0.022
   0.46153846  0.46153846  0.23076923       0.011
   0.30769231  0.30769231  0.30769231       0.004
   0.38461538  0.30769231  0.30769231       0.011
   0.46153846  0.30769231  0.30769231       0.011
   0.38461538  0.38461538  0.30769231       0.011
   0.46153846  0.38461538  0.30769231       0.022
   0.46153846  0.46153846  0.30769231       0.011
   0.38461538  0.38461538  0.38461538       0.004
   0.46153846  0.38461538  0.38461538       0.011
   0.46153846  0.46153846  0.38461538       0.011
   0.46153846  0.46153846  0.46153846       0.004
 
 position of ions in fractional coordinates (direct lattice) 
   0.50000000  0.50000000  0.00000000
   0.50000000  0.00000000  0.50000000
   0.00000000  0.50000000  0.50000000
   0.00000000  0.00000000  0.00000000
 
 position of ions in cartesian coordinates  (Angst):
   1.97828012  1.97828012  0.00000000
   1.97828012  0.00000000  1.97828012
   0.00000000  1.97828012  1.97828012
   0.00000000  0.00000000  0.00000000
 


--------------------------------------------------------------------------------------------------------


 k-point  1 :  0.00000.00000.0000  plane waves:   1575
 k-point  2 :  0.07690.00000.0000  plane waves:   1567
 k-point  3 :  0.15380.00000.0000  plane waves:   1579
 k-point  4 :  0.23080.00000.0000  plane waves:   1570
 k-point  5 :  0.30770.00000.0000  plane waves:   1558
 k-point  6 :  0.38460.00000.0000  plane waves:   1570
 k-point  7 :  0.46150.00000.0000  plane waves:   1562
 k-point  8 :  0.07690.07690.0000  plane waves:   1571
 k-point  9 :  0.15380.07690.0000  plane waves:   1576
 k-point 10 :  0.23080.07690.0000  plane waves:   1566
 k-point 11 :  0.30770.07690.0000  plane waves:   1569
 k-point 12 :  0.38460.07690.0000  plane waves:   1569
 k-point 13 :  0.46150.07690.0000  plane waves:   1571
 k-point 14 :  0.15380.15380.0000  plane waves:   1568
 k-point 15 :  0.23080.15380.0000  plane waves:   1567
 k-point 16 :  0.30770.15380.0000  plane waves:   1569
 k-point 17 :  0.38460.15380.0000  plane waves:   1565
 k-point 18 :  0.46150.15380.0000  plane waves:   1575
 k-point 19 :  0.23080.23080.0000  plane waves:   1570
 k-point 20 :  0.30770.23080.0000  plane waves:   1576
 k-point 21 :  0.38460.23080.0000  plane waves:   1565
 k-point 22 :  0.46150.23080.0000  plane waves:   1575
 k-point 23 :  0.30770.30770.0000  plane waves:   1584
 k-point 24 :  0.38460.30770.0000  plane waves:   1584
 k-point 25 :  0.46150.30770.0000  plane waves:   1576
 k-point 26 :  0.38460.38460.0000  plane waves:   1594
 k-point 27 :  0.46150.38460.0000  plane waves:   1583
 k-point 28 :  0.46150.46150.0000  plane waves:   1588
 k-point 29 :  0.07690.07690.0769  plane waves:   1566
 k-point 30 :  0.15380.07690.0769  plane waves:   1577
 k-point 31 :  0.23080.07690.0769  plane waves:   1570
 k-point 32 :  0.30770.07690.0769  plane waves:   1566
 k-point 33 :  0.38460.07690.0769  plane waves:   1570
 k-point 34 :  0.46150.07690.0769  plane waves:   1572
 k-point 35 :  0.15380.15380.0769  plane waves:   1568
 k-point 36 :  0.23080.15380.0769  plane waves:   1570
 k-point 37 :  0.30770.15380.0769  plane waves:   1563
 k-point 38 :  0.38460.15380.0769  plane waves:   1571
 k-point 39 :  0.46150.15380.0769  plane waves:   1576
 k-point 40 :  0.23080.23080.0769  plane waves:   1573
 k-point 41 :  0.30770.23080.0769  plane waves:   1573
 k-point 42 :  0.38460.23080.0769  plane waves:   1570
 k-point 43 :  0.46150.23080.0769  plane waves:   1574
 k-point 44 :  0.30770.30770.0769  plane waves:   1580
 k-point 45 :  0.38460.30770.0769  plane waves:   1579
 k-point 46 :  0.46150.30770.0769  plane waves:   1575
 k-point 47 :  0.38460.38460.0769  plane waves:   1580
 k-point 48 :  0.46150.38460.0769  plane waves:   1573
 k-point 49 :  0.46150.46150.0769  plane waves:   1578
 k-point 50 :  0.15380.15380.1538  plane waves:   1569
 k-point 51 :  0.23080.15380.1538  plane waves:   1571
 k-point 52 :  0.30770.15380.1538  plane waves:   1574
 k-point 53 :  0.38460.15380.1538  plane waves:   1569
 k-point 54 :  0.46150.15380.1538  plane waves:   1572
 k-point 55 :  0.23080.23080.1538  plane waves:   1571
 k-point 56 :  0.30770.23080.1538  plane waves:   1569
 k-point 57 :  0.38460.23080.1538  plane waves:   1571
 k-point 58 :  0.46150.23080.1538  plane waves:   1566
 k-point 59 :  0.30770.30770.1538  plane waves:   1573
 k-point 60 :  0.38460.30770.1538  plane waves:   1579
 k-point 61 :  0.46150.30770.1538  plane waves:   1578
 k-point 62 :  0.38460.38460.1538  plane waves:   1581
 k-point 63 :  0.46150.38460.1538  plane waves:   1575
 k-point 64 :  0.46150.46150.1538  plane waves:   1580
 k-point 65 :  0.23080.23080.2308  plane waves:   1574
 k-point 66 :  0.30770.23080.2308  plane waves:   1575
 k-point 67 :  0.38460.23080.2308  plane waves:   1573
 k-point 68 :  0.46150.23080.2308  plane waves:   1567
 k-point 69 :  0.30770.30770.2308  plane waves:   1576
 k-point 70 :  0.38460.30770.2308  plane waves:   1574
 k-point 71 :  0.46150.30770.2308  plane waves:   1560
 k-point 72 :  0.38460.38460.2308  plane waves:   1567
 k-point 73 :  0.46150.38460.2308  plane waves:   1575
 k-point 74 :  0.46150.46150.2308  plane waves:   1575
 k-point 75 :  0.30770.30770.3077  plane waves:   1568
 k-point 76 :  0.38460.30770.3077  plane waves:   1568
 k-point 77 :  0.46150.30770.3077  plane waves:   1561
 k-point 78 :  0.38460.38460.3077  plane waves:   1575
 k-point 79 :  0.46150.38460.3077  plane waves:   1576
 k-point 80 :  0.46150.46150.3077  plane waves:   1570
 k-point 81 :  0.38460.38460.3846  plane waves:   1565
 k-point 82 :  0.46150.38460.3846  plane waves:   1566
 k-point 83 :  0.46150.46150.3846  plane waves:   1579
 k-point 84 :  0.46150.46150.4615  plane waves:   1577

 maximum and minimum number of plane-waves per node :   1594  1558

 maximum number of plane-waves:   1594
 maximal index in each direction: 
   IXMAX=  7   IYMAX=  7   IZMAX=  7
   IXMIN= -7   IYMIN= -7   IZMIN= -7

 NGX is ok and might be reduce to  30
 NGY is ok and might be reduce to  30
 NGZ is ok and might be reduce to  30

 parallel 3dFFT wavefunction:
    minimum data exchange during FFTs selected (reduces bandwidth)
 parallel 3dFFT charge:
    minimum data exchange during FFTs selected (reduces bandwidth)

 For storing wavefunctions   33.81 MBYTES are necessary
 For predicting wavefunctions    1.18 MBYTES are necessary
Broyden mixing: mesh for mixing (old mesh)
   NGX = 15   NGY = 15   NGZ = 15
  (NGX  = 60   NGY  = 60   NGZ  = 60)
 gives a total of   3375 points
 initial charge density was supplied:
 charge density of overlapping atoms calculated
 number of electron   12.0000000 magnetization 
 keeping initial charge density in first step


--------------------------------------------------------------------------------------------------------


 Maximum index for augmentation-charges         2444 (set IRDMAX)


--------------------------------------------------------------------------------------------------------


 First call to EWALD:  gamma=   0.448
 Maximum number of real-space cells 3x 3x 3
 Maximum number of reciprocal cells 3x 3x 3

    FEWALD:  VPU time    0.00: CPU time    0.00


----------------------------------------- Iteration    1(   1)  ---------------------------------------


    POTLOK:  VPU time    0.02: CPU time    0.02
    SETDIJ:  VPU time    0.00: CPU time    0.00
    EDDAV :  VPU time    0.75: CPU time    0.78
    DOS   :  VPU time    0.00: CPU time   -0.00
    ------------------------------------------
      LOOP:  VPU time    0.77: CPU time    0.80

 eigenvalue-minimisations  :  2688
 total energy-change (2. order) : 0.6718726E+01  (-0.4056888E+03)
 number of electron   12.0000000 magnetization 
 augmentation part    12.0000000 magnetization 

 Free energy of the ion-electron system (eV)
  ---------------------------------------------------
  alpha Z        PSCENC =        -0.86766550
  Ewald energy   TEWEN  =      -300.35652811
  -1/2 Hartree   DENC   =        -0.32679810
  -V(xc)+E(xc)   XCENC  =      -104.49609156
  PAW double counting   =       142.21701965      -14.39593217
  entropy T*S    EENTRO =        -0.00005151
  eigenvalues    EBANDS =        70.79113184
  atomic energy  EATOM  =       214.15364153
  ---------------------------------------------------
  free energy    TOTEN  =         6.71872607 eV

  energy without entropy =        6.71877758  energy(sigma->0) =        6.71875183


--------------------------------------------------------------------------------------------------------




----------------------------------------- Iteration    1(   2)  ---------------------------------------


    EDDAV :  VPU time    0.93: CPU time    0.93
    DOS   :  VPU time    0.00: CPU time   -0.00
    ------------------------------------------
      LOOP:  VPU time    0.93: CPU time    0.93

 eigenvalue-minimisations  :  3568
 total energy-change (2. order) :-0.2106983E+02  (-0.1977149E+02)
 number of electron   12.0000000 magnetization 
 augmentation part    12.0000000 magnetization 

 Free energy of the ion-electron system (eV)
  ---------------------------------------------------
  alpha Z        PSCENC =        -0.86766550
  Ewald energy   TEWEN  =      -300.35652811
  -1/2 Hartree   DENC   =        -0.32679810
  -V(xc)+E(xc)   XCENC  =      -104.49609156
  PAW double counting   =       142.21701965      -14.39593217
  entropy T*S    EENTRO =        -0.00023239
  eigenvalues    EBANDS =        49.72148690
  atomic energy  EATOM  =       214.15364153
  ---------------------------------------------------
  free energy    TOTEN  =       -14.35109975 eV

  energy without entropy =      -14.35086736  energy(sigma->0) =      -14.35098356


--------------------------------------------------------------------------------------------------------




----------------------------------------- Iteration    1(   3)  ---------------------------------------


    EDDAV :  VPU time    0.94: CPU time    0.94
    DOS   :  VPU time    0.00: CPU time   -0.00
    ------------------------------------------
      LOOP:  VPU time    0.94: CPU time    0.94

 eigenvalue-minimisations  :  3416
 total energy-change (2. order) :-0.6615089E+00  (-0.6585093E+00)
 number of electron   12.0000000 magnetization 
 augmentation part    12.0000000 magnetization 

 Free energy of the ion-electron system (eV)
  ---------------------------------------------------
  alpha Z        PSCENC =        -0.86766550
  Ewald energy   TEWEN  =      -300.35652811
  -1/2 Hartree   DENC   =        -0.32679810
  -V(xc)+E(xc)   XCENC  =      -104.49609156
  PAW double counting   =       142.21701965      -14.39593217
  entropy T*S    EENTRO =        -0.00006482
  eigenvalues    EBANDS =        49.05981044
  atomic energy  EATOM  =       214.15364153
  ---------------------------------------------------
  free energy    TOTEN  =       -15.01260864 eV

  energy without entropy =      -15.01254382  energy(sigma->0) =      -15.01257623


--------------------------------------------------------------------------------------------------------




----------------------------------------- Iteration    1(   4)  ---------------------------------------


    EDDAV :  VPU time    0.93: CPU time    0.93
    DOS   :  VPU time    0.00: CPU time   -0.00
    ------------------------------------------
      LOOP:  VPU time    0.93: CPU time    1.16

 eigenvalue-minimisations  :  3344
 total energy-change (2. order) :-0.4049705E-02  (-0.4049551E-02)
 number of electron   12.0000000 magnetization 
 augmentation part    12.0000000 magnetization 

 Free energy of the ion-electron system (eV)
  ---------------------------------------------------
  alpha Z        PSCENC =        -0.86766550
  Ewald energy   TEWEN  =      -300.35652811
  -1/2 Hartree   DENC   =        -0.32679810
  -V(xc)+E(xc)   XCENC  =      -104.49609156
  PAW double counting   =       142.21701965      -14.39593217
  entropy T*S    EENTRO =        -0.00006445
  eigenvalues    EBANDS =        49.05576036
  atomic energy  EATOM  =       214.15364153
  ---------------------------------------------------
  free energy    TOTEN  =       -15.01665835 eV

  energy without entropy =      -15.01659390  energy(sigma->0) =      -15.01662612


--------------------------------------------------------------------------------------------------------




----------------------------------------- Iteration    1(   5)  ---------------------------------------


    EDDAV :  VPU time    0.98: CPU time    0.98
    DOS   :  VPU time    0.00: CPU time   -0.00
    CHARGE:  VPU time    0.03: CPU time    0.03
    MIXING:  VPU time    0.00: CPU time    0.00
    ------------------------------------------
      LOOP:  VPU time    1.02: CPU time    1.02

 eigenvalue-minimisations  :  3560
 total energy-change (2. order) :-0.4880017E-04  (-0.4879912E-04)
 number of electron   12.0000000 magnetization 
 augmentation part    -0.1437926 magnetization 

 Broyden mixing:
  rms(total) = 0.19213E+00    rms(broyden)= 0.19213E+00
  rms(prec ) = 0.44270E+00
  weight for this iteration     100.00

 Free energy of the ion-electron system (eV)
  ---------------------------------------------------
  alpha Z        PSCENC =        -0.86766550
  Ewald energy   TEWEN  =      -300.35652811
  -1/2 Hartree   DENC   =        -0.32679810
  -V(xc)+E(xc)   XCENC  =      -104.49609156
  PAW double counting   =       142.21701965      -14.39593217
  entropy T*S    EENTRO =        -0.00006444
  eigenvalues    EBANDS =        49.05571156
  atomic energy  EATOM  =       214.15364153
  ---------------------------------------------------
  free energy    TOTEN  =       -15.01670715 eV

  energy without entropy =      -15.01664270  energy(sigma->0) =      -15.01667492


--------------------------------------------------------------------------------------------------------




----------------------------------------- Iteration    1(   6)  ---------------------------------------


    POTLOK:  VPU time    0.02: CPU time    0.02
    SETDIJ:  VPU time    0.00: CPU time    0.00
    EDDAV :  VPU time    0.87: CPU time    0.87
    DOS   :  VPU time    0.00: CPU time   -0.00
    CHARGE:  VPU time    0.03: CPU time    0.03
    MIXING:  VPU time    0.00: CPU time    0.00
    ------------------------------------------
      LOOP:  VPU time    0.93: CPU time    0.93

 eigenvalue-minimisations  :  3096
 total energy-change (2. order) : 0.5559453E-01  (-0.5004713E-03)
 number of electron   12.0000000 magnetization 
 augmentation part    -0.1458063 magnetization 

 Broyden mixing:
  rms(total) = 0.11936E+00    rms(broyden)= 0.11936E+00
  rms(prec ) = 0.27675E+00
  weight for this iteration     100.00

 eigenvalues of (default mixing * dielectric matrix)
  average eigenvalue GAMMA=   2.6314
  2.6314

 Free energy of the ion-electron system (eV)
  ---------------------------------------------------
  alpha Z        PSCENC =        -0.86766550
  Ewald energy   TEWEN  =      -300.35652811
  -1/2 Hartree   DENC   =        -0.30722309
  -V(xc)+E(xc)   XCENC  =      -104.33480646
  PAW double counting   =       142.71792026      -14.92746072
  entropy T*S    EENTRO =        -0.00009871
  eigenvalues    EBANDS =        48.96110819
  atomic energy  EATOM  =       214.15364153
  ---------------------------------------------------
  free energy    TOTEN  =       -14.96111261 eV

  energy without entropy =      -14.96101390  energy(sigma->0) =      -14.96106325


--------------------------------------------------------------------------------------------------------




----------------------------------------- Iteration    1(   7)  ---------------------------------------


    POTLOK:  VPU time    0.02: CPU time    0.02
    SETDIJ:  VPU time    0.00: CPU time    0.00
    EDDAV :  VPU time    0.86: CPU time    0.86
    DOS   :  VPU time   -0.00: CPU time   -0.00
    CHARGE:  VPU time    0.03: CPU time    0.03
    MIXING:  VPU time    0.00: CPU time    0.00
    ------------------------------------------
      LOOP:  VPU time    0.92: CPU time    0.92

 eigenvalue-minimisations  :  3024
 total energy-change (2. order) : 0.4028151E-01  (-0.1574642E-02)
 number of electron   12.0000000 magnetization 
 augmentation part    -0.1498757 magnetization 

 Broyden mixing:
  rms(total) = 0.51591E-02    rms(broyden)= 0.51590E-02
  rms(prec ) = 0.85369E-02
  weight for this iteration     100.00

 eigenvalues of (default mixing * dielectric matrix)
  average eigenvalue GAMMA=   2.5698
  2.5698  2.5698

 Free energy of the ion-electron system (eV)
  ---------------------------------------------------
  alpha Z        PSCENC =        -0.86766550
  Ewald energy   TEWEN  =      -300.35652811
  -1/2 Hartree   DENC   =        -0.45315251
  -V(xc)+E(xc)   XCENC  =      -104.01249099
  PAW double counting   =       143.45531230      -15.72293607
  entropy T*S    EENTRO =        -0.00010652
  eigenvalues    EBANDS =        48.88309478
  atomic energy  EATOM  =       214.15364153
  ---------------------------------------------------
  free energy    TOTEN  =       -14.92083110 eV

  energy without entropy =      -14.92072458  energy(sigma->0) =      -14.92077784


--------------------------------------------------------------------------------------------------------




----------------------------------------- Iteration    1(   8)  ---------------------------------------


    POTLOK:  VPU time    0.02: CPU time    0.02
    SETDIJ:  VPU time    0.00: CPU time    0.00
    EDDAV :  VPU time    1.00: CPU time    1.00
    DOS   :  VPU time    0.00: CPU time   -0.00
    CHARGE:  VPU time    0.03: CPU time    0.03
    MIXING:  VPU time    0.00: CPU time    0.00
    ------------------------------------------
      LOOP:  VPU time    1.05: CPU time    1.05

 eigenvalue-minimisations  :  3624
 total energy-change (2. order) :-0.3261852E-04  (-0.1357779E-04)
 number of electron   12.0000000 magnetization 
 augmentation part    -0.1500951 magnetization 

 Broyden mixing:
  rms(total) = 0.11841E-02    rms(broyden)= 0.11841E-02
  rms(prec ) = 0.25558E-02
  weight for this iteration     100.00

 eigenvalues of (default mixing * dielectric matrix)
  average eigenvalue GAMMA=   2.1297
  1.1410  2.7547  2.4936

 Free energy of the ion-electron system (eV)
  ---------------------------------------------------
  alpha Z        PSCENC =        -0.86766550
  Ewald energy   TEWEN  =      -300.35652811
  -1/2 Hartree   DENC   =        -0.45828122
  -V(xc)+E(xc)   XCENC  =      -104.00777271
  PAW double counting   =       143.52599706      -15.79881762
  entropy T*S    EENTRO =        -0.00010481
  eigenvalues    EBANDS =        48.88866766
  atomic energy  EATOM  =       214.15364153
  ---------------------------------------------------
  free energy    TOTEN  =       -14.92086372 eV

  energy without entropy =      -14.92075891  energy(sigma->0) =      -14.92081132


--------------------------------------------------------------------------------------------------------




----------------------------------------- Iteration    1(   9)  ---------------------------------------


    POTLOK:  VPU time    0.02: CPU time    0.02
    SETDIJ:  VPU time    0.00: CPU time    0.00
    EDDAV :  VPU time    0.96: CPU time    0.96
    DOS   :  VPU time    0.00: CPU time   -0.00
    CHARGE:  VPU time    0.03: CPU time    0.03
    MIXING:  VPU time    0.00: CPU time    0.00
    ------------------------------------------
      LOOP:  VPU time    1.02: CPU time    1.02

 eigenvalue-minimisations  :  3472
 total energy-change (2. order) :-0.1990692E-05  (-0.3856183E-06)
 number of electron   12.0000000 magnetization 
 augmentation part    -0.1501903 magnetization 

 Broyden mixing:
  rms(total) = 0.12888E-03    rms(broyden)= 0.12888E-03
  rms(prec ) = 0.18693E-03
  weight for this iteration     100.00

 eigenvalues of (default mixing * dielectric matrix)
  average eigenvalue GAMMA=   2.0838
  0.9849  2.6647  2.5528  2.1329

 Free energy of the ion-electron system (eV)
  ---------------------------------------------------
  alpha Z        PSCENC =        -0.86766550
  Ewald energy   TEWEN  =      -300.35652811
  -1/2 Hartree   DENC   =        -0.46219591
  -V(xc)+E(xc)   XCENC  =      -104.00307766
  PAW double counting   =       143.54361268      -15.81828956
  entropy T*S    EENTRO =        -0.00010474
  eigenvalues    EBANDS =        48.88974157
  atomic energy  EATOM  =       214.15364153
  ---------------------------------------------------
  free energy    TOTEN  =       -14.92086571 eV

  energy without entropy =      -14.92076097  energy(sigma->0) =      -14.92081334


--------------------------------------------------------------------------------------------------------




----------------------------------------- Iteration    1(  10)  ---------------------------------------


    POTLOK:  VPU time    0.02: CPU time    0.02
    SETDIJ:  VPU time    0.00: CPU time    0.00
    EDDAV :  VPU time    0.99: CPU time    1.00
    DOS   :  VPU time    0.00: CPU time   -0.00
    CHARGE:  VPU time    0.03: CPU time    0.03
    MIXING:  VPU time    0.00: CPU time    0.00
    ------------------------------------------
      LOOP:  VPU time    1.05: CPU time    1.05

 eigenvalue-minimisations  :  3624
 total energy-change (2. order) : 0.9442984E-06  (-0.4418755E-08)
 number of electron   12.0000000 magnetization 
 augmentation part    -0.1501908 magnetization 

 Broyden mixing:
  rms(total) = 0.29173E-04    rms(broyden)= 0.29172E-04
  rms(prec ) = 0.53853E-04
  weight for this iteration     100.00

 eigenvalues of (default mixing * dielectric matrix)
  average eigenvalue GAMMA=   1.9825
  1.0363  0.9583  2.7099  2.7099  2.4980

 Free energy of the ion-electron system (eV)
  ---------------------------------------------------
  alpha Z        PSCENC =        -0.86766550
  Ewald energy   TEWEN  =      -300.35652811
  -1/2 Hartree   DENC   =        -0.46211410
  -V(xc)+E(xc)   XCENC  =      -104.00319353
  PAW double counting   =       143.53247080      -15.80681688
  entropy T*S    EENTRO =        -0.00010473
  eigenvalues    EBANDS =        48.88944578
  atomic energy  EATOM  =       214.15364153
  ---------------------------------------------------
  free energy    TOTEN  =       -14.92086477 eV

  energy without entropy =      -14.92076003  energy(sigma->0) =      -14.92081240


--------------------------------------------------------------------------------------------------------




----------------------------------------- Iteration    1(  11)  ---------------------------------------


    POTLOK:  VPU time    0.02: CPU time    0.02
    SETDIJ:  VPU time    0.00: CPU time    0.00
    EDDAV :  VPU time    0.75: CPU time    0.75
    DOS   :  VPU time    0.00: CPU time   -0.00
    CHARGE:  VPU time    0.03: CPU time    0.03
    MIXING:  VPU time    0.00: CPU time    0.00
    ------------------------------------------
      LOOP:  VPU time    0.80: CPU time    0.81

 eigenvalue-minimisations  :  2432
 total energy-change (2. order) : 0.1241007E-06  (-0.1184074E-09)
 number of electron   12.0000000 magnetization 
 augmentation part    -0.1501918 magnetization 

 Broyden mixing:
  rms(total) = 0.24396E-05    rms(broyden)= 0.24392E-05
  rms(prec ) = 0.28897E-05
  weight for this iteration     100.00

 eigenvalues of (default mixing * dielectric matrix)
  average eigenvalue GAMMA=   1.9834
  0.9961  0.9961  2.6980  2.6980  2.4849  2.0273

 Free energy of the ion-electron system (eV)
  ---------------------------------------------------
  alpha Z        PSCENC =        -0.86766550
  Ewald energy   TEWEN  =      -300.35652811
  -1/2 Hartree   DENC   =        -0.46217756
  -V(xc)+E(xc)   XCENC  =      -104.00311961
  PAW double counting   =       143.53030136      -15.80460753
  entropy T*S    EENTRO =        -0.00010473
  eigenvalues    EBANDS =        48.88939552
  atomic energy  EATOM  =       214.15364153
  ---------------------------------------------------
  free energy    TOTEN  =       -14.92086464 eV

  energy without entropy =      -14.92075991  energy(sigma->0) =      -14.92081227


--------------------------------------------------------------------------------------------------------




----------------------------------------- Iteration    1(  12)  ---------------------------------------


    POTLOK:  VPU time    0.02: CPU time    0.02
    SETDIJ:  VPU time    0.00: CPU time    0.00
    EDDAV :  VPU time    0.68: CPU time    0.68
    DOS   :  VPU time    0.00: CPU time   -0.00
    CHARGE:  VPU time    0.03: CPU time    0.03
    MIXING:  VPU time    0.00: CPU time    0.00
    ------------------------------------------
      LOOP:  VPU time    0.73: CPU time    0.73

 eigenvalue-minimisations  :  2080
 total energy-change (2. order) :-0.2147343E-07  (-0.1246715E-10)
 number of electron   12.0000000 magnetization 
 augmentation part    -0.1501918 magnetization 

 Broyden mixing:
  rms(total) = 0.76576E-06    rms(broyden)= 0.76571E-06
  rms(prec ) = 0.14903E-05
  weight for this iteration     100.00

 eigenvalues of (default mixing * dielectric matrix)
  average eigenvalue GAMMA=   1.9029
  2.6984  2.6462  2.6462  2.4743  0.9954  0.9954  0.8641

 Free energy of the ion-electron system (eV)
  ---------------------------------------------------
  alpha Z        PSCENC =        -0.86766550
  Ewald energy   TEWEN  =      -300.35652811
  -1/2 Hartree   DENC   =        -0.46217696
  -V(xc)+E(xc)   XCENC  =      -104.00312265
  PAW double counting   =       143.53066296      -15.80497887
  entropy T*S    EENTRO =        -0.00010473
  eigenvalues    EBANDS =        48.88940767
  atomic energy  EATOM  =       214.15364153
  ---------------------------------------------------
  free energy    TOTEN  =       -14.92086466 eV

  energy without entropy =      -14.92075993  energy(sigma->0) =      -14.92081230


--------------------------------------------------------------------------------------------------------




----------------------------------------- Iteration    1(  13)  ---------------------------------------


    POTLOK:  VPU time    0.02: CPU time    0.02
    SETDIJ:  VPU time    0.00: CPU time    0.00
    EDDAV :  VPU time    0.62: CPU time    0.62
    DOS   :  VPU time    0.00: CPU time   -0.00
    ------------------------------------------
      LOOP:  VPU time    0.64: CPU time    0.64

 eigenvalue-minimisations  :  1816
 total energy-change (2. order) :-0.1652097E-08  (-0.3074432E-11)
 number of electron   12.0000000 magnetization 
 augmentation part    -0.1501918 magnetization 

 Free energy of the ion-electron system (eV)
  ---------------------------------------------------
  alpha Z        PSCENC =        -0.86766550
  Ewald energy   TEWEN  =      -300.35652811
  -1/2 Hartree   DENC   =        -0.46217780
  -V(xc)+E(xc)   XCENC  =      -104.00312188
  PAW double counting   =       143.53072684      -15.80504442
  entropy T*S    EENTRO =        -0.00010473
  eigenvalues    EBANDS =        48.88940941
  atomic energy  EATOM  =       214.15364153
  ---------------------------------------------------
  free energy    TOTEN  =       -14.92086466 eV

  energy without entropy =      -14.92075993  energy(sigma->0) =      -14.92081230


--------------------------------------------------------------------------------------------------------




 average (electrostatic) potential at core
  the test charge radii are     1.0406
  (the norm of the test charge is              1.0000)
       1 -71.8576       2 -71.8576       3 -71.8576       4 -71.8576
 
 
 
 E-fermi :   8.6627     XC(G=0): -10.4288     alpha+bet :-15.8521
   add alpha+bet to get absolut eigen values

 k-point   1 :       0.0000    0.0000    0.0000
  band No.  band energies     occupation 
      1      -2.9018      2.00000
      2       5.6014      2.00000
      3       5.6014      2.00000
      4       5.6014      2.00000
      5       7.0601      2.00000
      6       7.0601      2.00000
      7       7.0601      2.00000
      8      13.9504      0.00000
      9      13.9504      0.00000
     10      13.9504      0.00000
     11      14.5800      0.00000
     12      14.5800      0.00000
     13      14.5800      0.00000
     14      14.5800      0.00000
     15      14.5800      0.00000
     16      14.5800      0.00000

 k-point   2 :       0.0769    0.0000    0.0000
  band No.  band energies     occupation 
      1      -2.8459      2.00000
      2       4.8185      2.00000
      3       5.6522      2.00000
      4       5.6522      2.00000
      5       7.1130      2.00000
      6       7.1130      2.00000
      7       7.9386      2.00000
      8      12.9417      0.00000
      9      12.9417      0.00000
     10      14.0057      0.00000
     11      14.2050      0.00000
     12      14.2050      0.00000
     13      14.6267      0.00000
     14      14.6267      0.00000
     15      15.6923      0.00000
     16      15.6923      0.00000

 k-point   3 :       0.1538    0.0000    0.0000
  band No.  band energies     occupation 
      1      -2.6782      2.00000
      2       3.6708      2.00000
      3       5.8046      2.00000
      4       5.8046      2.00000
      5       7.2707      2.00000
      6       7.2707      2.00000
      7       9.3727      0.00000
      8      11.7767      0.00000
      9      11.7767      0.00000
     10      13.3909      0.00000
     11      13.3909      0.00000
     12      14.1714      0.00000
     13      14.7672      0.00000
     14      14.7672      0.00000
     15      17.1676      0.00000
     16      17.1676      0.00000

 k-point   4 :       0.2308    0.0000    0.0000
  band No.  band energies     occupation 
      1      -2.3992      2.00000
      2       2.5675      2.00000
      3       6.0588      2.00000
      4       6.0588      2.00000
      5       7.5294      2.00000
      6       7.5294      2.00000
      7      10.7039      0.00000
      8      10.7039      0.00000
      9      10.9531      0.00000
     10      12.4741      0.00000
     11      12.4741      0.00000
     12      14.4472      0.00000
     13      15.0013      0.00000
     14      15.0013      0.00000
     15      18.7563      0.00000
     16      18.7898      0.00000

 k-point   5 :       0.3077    0.0000    0.0000
  band No.  band energies     occupation 
      1      -2.0097      2.00000
      2       1.5502      2.00000
      3       6.4148      2.00000
      4       6.4148      2.00000
      5       7.8795      2.00000
      6       7.8795      2.00000
      7       9.7321      0.00000
      8       9.7321      0.00000
      9      11.5876      0.00000
     10      11.5876      0.00000
     11      12.6373      0.00000
     12      14.8326      0.00000
     13      15.3292      0.00000
     14      15.3292      0.00000
     15      18.3420      0.00000
     16      18.3676      0.00000

 k-point   6 :       0.3846    0.0000    0.0000
  band No.  band energies     occupation 
      1      -1.5105      2.00000
      2       0.6299      2.00000
      3       6.8730      2.00000
      4       6.8730      2.00000
      5       8.2936      2.00000
      6       8.2936      2.00000
      7       8.8630      0.00000
      8       8.8630      0.00000
      9      10.8022      0.00000
     10      10.8022      0.00000
     11      14.4128      0.00000
     12      15.3267      0.00000
     13      15.7510      0.00000
     14      15.7510      0.00000
     15      17.4414      0.00000
     16      17.5769      0.00000

 k-point   7 :       0.4615    0.0000    0.0000
  band No.  band energies     occupation 
      1      -0.9030      2.00000
      2      -0.1889      2.00000
      3       7.4336      2.00000
      4       7.4336      2.00000
      5       8.0968      2.00000
      6       8.0968      2.00000
      7       8.6656      0.68515
      8       8.6656      0.68515
      9      10.2416      0.00000
     10      10.2416      0.00000
     11      15.9282      0.00000
     12      16.2667      0.00000
     13      16.2667      0.00000
     14      16.2722      0.00000
     15      16.6345      0.00000
     16      16.8757      0.00000

 k-point   8 :       0.0769    0.0769    0.0000
  band No.  band energies     occupation 
      1      -2.7900      2.00000
      2       4.8705      2.00000
      3       4.8705      2.00000
      4       5.7030      2.00000
      5       7.1654      2.00000
      6       7.9899      2.00000
      7       7.9899      2.00000
      8      12.1871      0.00000
      9      12.9937      0.00000
     10      12.9937      0.00000
     11      14.2533      0.00000
     12      14.2533      0.00000
     13      14.6745      0.00000
     14      15.6648      0.00000
     15      15.7423      0.00000
     16      15.7423      0.00000

 k-point   9 :       0.1538    0.0769    0.0000
  band No.  band energies     occupation 
      1      -2.6224      2.00000
      2       3.7238      2.00000
      3       5.0266      2.00000
      4       5.8554      2.00000
      5       7.3210      2.00000
      6       8.1426      2.00000
      7       9.4219      0.00000
      8      11.0919      0.00000
      9      11.8282      0.00000
     10      13.1497      0.00000
     11      13.4422      0.00000
     12      14.1188      0.00000
     13      14.3982      0.00000
     14      15.8922      0.00000
     15      16.7623      0.00000
     16      17.2179      0.00000

 k-point  10 :       0.2308    0.0769    0.0000
  band No.  band energies     occupation 
      1      -2.3435      2.00000
      2       2.6210      2.00000
      3       5.2863      2.00000
      4       6.1096      2.00000
      5       7.5730      2.00000
      6       8.3925      2.00000
      7      10.0500      0.00000
      8      10.7553      0.00000
      9      10.9988      0.00000
     10      12.5298      0.00000
     11      13.2166      0.00000
     12      13.4094      0.00000
     13      14.6404      0.00000
     14      16.1421      0.00000
     15      18.0422      0.00000
     16      18.2775      0.00000

 k-point  11 :       0.3077    0.0769    0.0000
  band No.  band energies     occupation 
      1      -1.9541      2.00000
      2       1.6043      2.00000
      3       5.6489      2.00000
      4       6.4657      2.00000
      5       7.8911      2.00000
      6       8.7268      0.00000
      7       9.1265      0.00000
      8       9.7834      0.00000
      9      11.6534      0.00000
     10      12.3239      0.00000
     11      12.6749      0.00000
     12      13.7723      0.00000
     13      14.9825      0.00000
     14      16.4920      0.00000
     15      17.0945      0.00000
     16      18.0061      0.00000

 k-point  12 :       0.3846    0.0769    0.0000
  band No.  band energies     occupation 
      1      -1.4552      2.00000
      2       0.6843      2.00000
      3       6.1129      2.00000
      4       6.9239      2.00000
      5       7.9494      2.00000
      6       8.6440      1.99201
      7       8.9142      0.00000
      8       9.0995      0.00000
      9      10.9043      0.00000
     10      11.5114      0.00000
     11      14.2376      0.00000
     12      14.4198      0.00000
     13      15.4423      0.00000
     14      16.2356      0.00000
     15      16.9417      0.00000
     16      17.2111      0.00000

 k-point  13 :       0.4615    0.0769    0.0000
  band No.  band energies     occupation 
      1      -0.8479      2.00000
      2      -0.1341      2.00000
      3       6.6749      2.00000
      4       7.3227      2.00000
      5       7.4846      2.00000
      6       8.1479      2.00000
      7       8.9875      0.00000
      8       9.2885      0.00000
      9      10.5251      0.00000
     10      10.8410      0.00000
     11      14.8044      0.00000
     12      15.4711      0.00000
     13      15.8086      0.00000
     14      16.4363      0.00000
     15      16.4940      0.00000
     16      17.4905      0.00000

 k-point  14 :       0.1538    0.1538    0.0000
  band No.  band energies     occupation 
      1      -2.4550      2.00000
      2       3.8825      2.00000
      3       3.8825      2.00000
      4       6.0079      2.00000
      5       7.4673      2.00000
      6       9.5673      0.00000
      7       9.5673      0.00000
      8      10.0319      0.00000
      9      11.9829      0.00000
     10      11.9829      0.00000
     11      13.5967      0.00000
     12      13.5967      0.00000
     13      14.9583      0.00000
     14      16.3862      0.00000
     15      17.3685      0.00000
     16      17.3685      0.00000

 k-point  15 :       0.2308    0.1538    0.0000
  band No.  band energies     occupation 
      1      -2.1765      2.00000
      2       2.7816      2.00000
      3       4.1466      2.00000
      4       6.2622      2.00000
      5       7.6784      2.00000
      6       9.0387      0.00000
      7       9.7995      0.00000
      8      10.9095      0.00000
      9      11.1300      0.00000
     10      12.2406      0.00000
     11      12.7012      0.00000
     12      13.8589      0.00000
     13      14.4793      0.00000
     14      16.8873      0.00000
     15      17.4418      0.00000
     16      17.6194      0.00000

 k-point  16 :       0.3077    0.1538    0.0000
  band No.  band energies     occupation 
      1      -1.7876      2.00000
      2       1.7663      2.00000
      3       4.5151      2.00000
      4       6.6184      2.00000
      5       7.6561      2.00000
      6       8.4607      2.00000
      7       9.9372      0.00000
      8      10.0820      0.00000
      9      11.8731      0.00000
     10      12.6011      0.00000
     11      12.7639      0.00000
     12      13.6420      0.00000
     13      14.2517      0.00000
     14      15.9268      0.00000
     15      17.2215      0.00000
     16      17.9700      0.00000

 k-point  17 :       0.3846    0.1538    0.0000
  band No.  band energies     occupation 
      1      -1.2893      2.00000
      2       0.8475      2.00000
      3       4.9869      2.00000
      4       6.9727      2.00000
      5       7.0768      2.00000
      6       8.7334      0.00000
      7       9.0677      0.00000
      8      10.2165      0.00000
      9      11.3555      0.00000
     10      12.8327      0.00000
     11      13.0641      0.00000
     12      14.2327      0.00000
     13      14.9974      0.00000
     14      15.0618      0.00000
     15      16.4197      0.00000
     16      18.4192      0.00000

 k-point  18 :       0.4615    0.1538    0.0000
  band No.  band energies     occupation 
      1      -0.6828      2.00000
      2       0.0302      2.00000
      3       5.5595      2.00000
      4       6.2275      2.00000
      5       7.6377      2.00000
      6       8.3012      2.00000
      7       9.2495      0.00000
      8       9.8265      0.00000
      9      11.5448      0.00000
     10      12.1145      0.00000
     11      13.6290      0.00000
     12      14.2953      0.00000
     13      15.0203      0.00000
     14      15.6903      0.00000
     15      16.6022      0.00000
     16      18.4909      0.00000

 k-point  19 :       0.2308    0.2308    0.0000
  band No.  band energies     occupation 
      1      -1.8986      2.00000
      2       3.0487      2.00000
      3       3.0487      2.00000
      4       6.5166      2.00000
      5       7.5548      2.00000
      6       8.3798      2.00000
      7      11.1664      0.00000
      8      11.1664      0.00000
      9      11.3143      0.00000
     10      11.3143      0.00000
     11      13.0140      0.00000
     12      13.0140      0.00000
     13      15.4319      0.00000
     14      15.8235      0.00000
     15      17.0543      0.00000
     16      17.2001      0.00000

 k-point  20 :       0.3077    0.2308    0.0000
  band No.  band energies     occupation 
      1      -1.5105      2.00000
      2       2.0358      2.00000
      3       3.4217      2.00000
      4       6.7809      2.00000
      5       6.8731      2.00000
      6       8.5517      2.00000
      7      10.1936      0.00000
      8      11.3599      0.00000
      9      11.5260      0.00000
     10      12.4218      0.00000
     11      12.7062      0.00000
     12      13.6533      0.00000
     13      14.8559      0.00000
     14      15.0614      0.00000
     15      16.3333      0.00000
     16      18.1577      0.00000

 k-point  21 :       0.3846    0.2308    0.0000
  band No.  band energies     occupation 
      1      -1.0132      2.00000
      2       1.1191      2.00000
      3       3.8993      2.00000
      4       5.9343      2.00000
      5       7.3318      2.00000
      6       8.9888      0.00000
      7       9.3237      0.00000
      8      10.8720      0.00000
      9      11.9881      0.00000
     10      12.5221      0.00000
     11      13.5083      0.00000
     12      13.9873      0.00000
     13      14.3222      0.00000
     14      15.0704      0.00000
     15      15.5244      0.00000
     16      19.8064      0.00000

 k-point  22 :       0.4615    0.2308    0.0000
  band No.  band energies     occupation 
      1      -0.4080      2.00000
      2       0.3035      2.00000
      3       4.4799      2.00000
      4       5.1604      2.00000
      5       7.8929      2.00000
      6       8.5568      2.00000
      7       9.5453      0.00000
      8      10.1896      0.00000
      9      12.5527      0.00000
     10      12.9943      0.00000
     11      13.2192      0.00000
     12      13.6121      0.00000
     13      14.1255      0.00000
     14      14.7882      0.00000
     15      16.8481      0.00000
     16      18.7386      0.00000

 k-point  23 :       0.3077    0.3077    0.0000
  band No.  band energies     occupation 
      1      -1.1236      2.00000
      2       2.4122      2.00000
      3       2.4122      2.00000
      4       5.8345      2.00000
      5       7.2298      2.00000
      6       8.8928      0.00000
      7      10.5527      0.00000
      8      10.5527      0.00000
      9      12.1072      0.00000
     10      12.1072      0.00000
     11      13.7058      0.00000
     12      13.7058      0.00000
     13      13.8844      0.00000
     14      15.4600      0.00000
     15      16.0962      0.00000
     16      17.8587      0.00000

 k-point  24 :       0.3846    0.3077    0.0000
  band No.  band energies     occupation 
      1      -0.6277      2.00000
      2       1.4983      2.00000
      3       2.8944      2.00000
      4       4.9566      2.00000
      5       7.6889      2.00000
      6       9.3582      0.00000
      7       9.6822      0.00000
      8      11.0143      0.00000
      9      11.3318      0.00000
     10      12.6536      0.00000
     11      13.0139      0.00000
     12      14.0888      0.00000
     13      14.6436      0.00000
     14      15.3774      0.00000
     15      15.8437      0.00000
     16      19.0249      0.00000

 k-point  25 :       0.4615    0.3077    0.0000
  band No.  band energies     occupation 
      1      -0.0243      2.00000
      2       0.6851      2.00000
      3       3.4809      2.00000
      4       4.1696      2.00000
      5       8.2505      2.00000
      6       8.9148      0.00000
      7       9.9280      0.00000
      8      10.5912      0.00000
      9      11.5784      0.00000
     10      12.2450      0.00000
     11      13.2393      0.00000
     12      13.9013      0.00000
     13      14.6064      0.00000
     14      15.2130      0.00000
     15      17.1791      0.00000
     16      19.0428      0.00000

 k-point  26 :       0.3846    0.3846    0.0000
  band No.  band energies     occupation 
      1      -0.1337      2.00000
      2       1.9842      2.00000
      3       1.9842      2.00000
      4       4.0654      2.00000
      5       8.1484      2.00000
      6       9.8326      0.00000
      7      10.1433      0.00000
      8      10.1433      0.00000
      9      11.8300      0.00000
     10      11.8300      0.00000
     11      12.1424      0.00000
     12      13.8200      0.00000
     13      15.7988      0.00000
     14      15.7988      0.00000
     15      16.9519      0.00000
     16      18.8368      0.00000

 k-point  27 :       0.4615    0.3846    0.0000
  band No.  band energies     occupation 
      1       0.4675      2.00000
      2       1.1742      2.00000
      3       2.5755      2.00000
      4       3.2701      2.00000
      5       8.7105      0.00000
      6       9.3754      0.00000
      7      10.4072      0.00000
      8      10.7070      0.00000
      9      11.0758      0.00000
     10      11.3734      0.00000
     11      12.4077      0.00000
     12      13.0719      0.00000
     13      16.3016      0.00000
     14      16.8204      0.00000
     15      17.5806      0.00000
     16      19.3414      0.00000

 k-point  28 :       0.4615    0.4615    0.0000
  band No.  band energies     occupation 
      1       1.0659      2.00000
      2       1.7693      2.00000
      3       1.7693      2.00000
      4       2.4688      2.00000
      5       9.2731      0.00000
      6       9.9386      0.00000
      7       9.9386      0.00000
      8      10.6046      0.00000
      9      10.9829      0.00000
     10      11.6519      0.00000
     11      11.6519      0.00000
     12      12.3188      0.00000
     13      17.9877      0.00000
     14      17.9877      0.00000
     15      17.9996      0.00000
     16      19.2383      0.00000

 k-point  29 :       0.0769    0.0769    0.0769
  band No.  band energies     occupation 
      1      -2.7341      2.00000
      2       4.9226      2.00000
      3       4.9226      2.00000
      4       4.9226      2.00000
      5       8.0405      2.00000
      6       8.0405      2.00000
      7       8.0405      2.00000
      8      12.2394      0.00000
      9      12.2394      0.00000
     10      12.2394      0.00000
     11      14.7213      0.00000
     12      14.7213      0.00000
     13      14.7213      0.00000
     14      15.7174      0.00000
     15      15.7174      0.00000
     16      15.7174      0.00000

 k-point  30 :       0.1538    0.0769    0.0769
  band No.  band energies     occupation 
      1      -2.5666      2.00000
      2       3.7767      2.00000
      3       5.0785      2.00000
      4       5.0785      2.00000
      5       8.1903      2.00000
      6       8.1903      2.00000
      7       9.4694      0.00000
      8      11.1460      0.00000
      9      11.1460      0.00000
     10      12.3969      0.00000
     11      14.1683      0.00000
     12      14.1683      0.00000
     13      14.8618      0.00000
     14      15.8749      0.00000
     15      16.8137      0.00000
     16      16.8137      0.00000

 k-point  31 :       0.2308    0.0769    0.0769
  band No.  band energies     occupation 
      1      -2.2878      2.00000
      2       2.6746      2.00000
      3       5.3379      2.00000
      4       5.3379      2.00000
      5       8.4280      2.00000
      6       8.4280      2.00000
      7      10.1116      0.00000
      8      10.1116      0.00000
      9      11.0381      0.00000
     10      12.6635      0.00000
     11      13.2691      0.00000
     12      13.2691      0.00000
     13      15.0960      0.00000
     14      16.1371      0.00000
     15      17.2310      0.00000
     16      18.3279      0.00000

 k-point  32 :       0.3077    0.0769    0.0769
  band No.  band energies     occupation 
      1      -1.8986      2.00000
      2       1.6583      2.00000
      3       5.6998      2.00000
      4       5.6998      2.00000
      5       8.6534      1.81203
      6       8.6534      1.81203
      7       9.2709      0.00000
      8       9.2709      0.00000
      9      12.3813      0.00000
     10      12.3813      0.00000
     11      12.6425      0.00000
     12      13.0992      0.00000
     13      15.4241      0.00000
     14      16.2896      0.00000
     15      16.5038      0.00000
     16      18.4649      0.00000

 k-point  33 :       0.3846    0.0769    0.0769
  band No.  band energies     occupation 
      1      -1.3998      2.00000
      2       0.7387      2.00000
      3       6.1614      2.00000
      4       6.1614      2.00000
      5       8.1549      2.00000
      6       8.1549      2.00000
      7       9.3282      0.00000
      8       9.3282      0.00000
      9      11.5830      0.00000
     10      11.5830      0.00000
     11      13.4289      0.00000
     12      14.5422      0.00000
     13      15.4356      0.00000
     14      15.8462      0.00000
     15      16.9759      0.00000
     16      17.6734      0.00000

 k-point  34 :       0.4615    0.0769    0.0769
  band No.  band energies     occupation 
      1      -0.7929      2.00000
      2      -0.0793      2.00000
      3       6.7064      2.00000
      4       6.7064      2.00000
      5       7.4379      2.00000
      6       7.4379      2.00000
      7       9.7076      0.00000
      8       9.7076      0.00000
      9      10.9828      0.00000
     10      10.9828      0.00000
     11      14.0083      0.00000
     12      14.6747      0.00000
     13      16.3597      0.00000
     14      16.3622      0.00000
     15      16.9716      0.00000
     16      17.5641      0.00000

 k-point  35 :       0.1538    0.1538    0.0769
  band No.  band energies     occupation 
      1      -2.3992      2.00000
      2       3.9353      2.00000
      3       3.9353      2.00000
      4       5.2340      2.00000
      5       8.3242      2.00000
      6       9.6054      0.00000
      7       9.6054      0.00000
      8      10.0959      0.00000
      9      11.3129      0.00000
     10      11.3129      0.00000
     11      14.3171      0.00000
     12      14.3171      0.00000
     13      15.0051      0.00000
     14      16.4401      0.00000
     15      16.9676      0.00000
     16      16.9676      0.00000

 k-point  36 :       0.2308    0.1538    0.0769
  band No.  band energies     occupation 
      1      -2.1209      2.00000
      2       2.8350      2.00000
      3       4.1992      2.00000
      4       5.4923      2.00000
      5       8.4445      2.00000
      6       9.1892      0.00000
      7       9.7515      0.00000
      8      10.3599      0.00000
      9      11.0899      0.00000
     10      11.6577      0.00000
     11      13.4280      0.00000
     12      14.5289      0.00000
     13      14.5662      0.00000
     14      16.1418      0.00000
     15      17.2235      0.00000
     16      17.4933      0.00000

 k-point  37 :       0.3077    0.1538    0.0769
  band No.  band energies     occupation 
      1      -1.7321      2.00000
      2       1.8202      2.00000
      3       4.5673      2.00000
      4       5.8508      2.00000
      5       7.9097      2.00000
      6       9.1200      0.00000
      7       9.1857      0.00000
      8      10.2859      0.00000
      9      11.8438      0.00000
     10      12.5609      0.00000
     11      12.9308      0.00000
     12      13.6943      0.00000
     13      14.9203      0.00000
     14      15.1931      0.00000
     15      17.5807      0.00000
     16      17.9681      0.00000

 k-point  38 :       0.3846    0.1538    0.0769
  band No.  band energies     occupation 
      1      -1.2340      2.00000
      2       0.9019      2.00000
      3       5.0381      2.00000
      4       6.2924      2.00000
      5       7.1078      2.00000
      6       8.3482      2.00000
      7       9.5244      0.00000
      8      10.5902      0.00000
      9      11.8464      0.00000
     10      12.3336      0.00000
     11      12.8895      0.00000
     12      14.3347      0.00000
     13      14.6110      0.00000
     14      15.4194      0.00000
     15      17.1659      0.00000
     16      18.0378      0.00000

 k-point  39 :       0.4615    0.1538    0.0769
  band No.  band energies     occupation 
      1      -0.6278      2.00000
      2       0.0849      2.00000
      3       5.6074      2.00000
      4       6.2498      2.00000
[...]
     16      19.5254      0.00000

 k-point  64 :       0.4615    0.4615    0.1538
  band No.  band energies     occupation 
      1       1.2829      2.00000
      2       1.9850      2.00000
      3       1.9850      2.00000
      4       2.6829      2.00000
      5       7.4797      2.00000
      6       8.1550      2.00000
      7       8.1550      2.00000
      8       8.8296      0.00000
      9      13.1473      0.00000
     10      13.7998      0.00000
     11      13.7998      0.00000
     12      14.4529      0.00000
     13      18.1779      0.00000
     14      18.1779      0.00000
     15      18.1887      0.00000
     16      19.4275      0.00000

 k-point  65 :       0.2308    0.2308    0.2308
  band No.  band energies     occupation 
      1      -1.3998      2.00000
      2       3.5273      2.00000
      3       3.5273      2.00000
      4       3.5273      2.00000
      5       8.3099      2.00000
      6       8.3099      2.00000
      7       8.3099      2.00000
      8      11.9363      0.00000
      9      11.9363      0.00000
     10      11.9363      0.00000
     11      12.9928      0.00000
     12      15.8549      0.00000
     13      15.8549      0.00000
     14      15.8549      0.00000
     15      17.5327      0.00000
     16      17.5327      0.00000

 k-point  66 :       0.3077    0.2308    0.2308
  band No.  band energies     occupation 
      1      -1.0132      2.00000
      2       2.5194      2.00000
      3       3.8973      2.00000
      4       3.8973      2.00000
      5       7.3404      2.00000
      6       7.3404      2.00000
      7       8.6799      0.01494
      8      12.0337      0.00000
      9      12.2860      0.00000
     10      12.2860      0.00000
     11      13.5970      0.00000
     12      15.5070      0.00000
     13      15.5070      0.00000
     14      16.1843      0.00000
     15      17.8995      0.00000
     16      18.6116      0.00000

 k-point  67 :       0.3846    0.2308    0.2308
  band No.  band energies     occupation 
      1      -0.5178      2.00000
      2       1.6065      2.00000
      3       4.3676      2.00000
      4       4.3676      2.00000
      5       6.4660      2.00000
      6       6.4660      2.00000
      7       9.1504      0.00000
      8      11.1659      0.00000
      9      12.7175      0.00000
     10      12.7175      0.00000
     11      14.7984      0.00000
     12      14.7984      0.00000
     13      15.3442      0.00000
     14      16.6081      0.00000
     15      18.3639      0.00000
     16      18.4450      0.00000

 k-point  68 :       0.4615    0.2308    0.2308
  band No.  band energies     occupation 
      1       0.0852      2.00000
      2       0.7940      2.00000
      3       4.9117      2.00000
      4       4.9117      2.00000
      5       5.7188      2.00000
      6       5.7188      2.00000
      7       9.7221      0.00000
      8      10.3944      0.00000
      9      13.1641      0.00000
     10      13.1641      0.00000
     11      14.1883      0.00000
     12      14.1883      0.00000
     13      17.1264      0.00000
     14      17.1539      0.00000
     15      17.7389      0.00000
     16      18.9248      0.00000

 k-point  69 :       0.3077    0.3077    0.2308
  band No.  band energies     occupation 
      1      -0.6277      2.00000
      2       2.8939      2.00000
      3       2.8939      2.00000
      4       4.2620      2.00000
      5       6.3672      2.00000
      6       7.7070      2.00000
      7       7.7070      2.00000
      8      11.0708      0.00000
      9      12.6509      0.00000
     10      13.9357      0.00000
     11      13.9357      0.00000
     12      15.8586      0.00000
     13      15.8586      0.00000
     14      16.5202      0.00000
     15      18.3220      0.00000
     16      18.8374      0.00000

 k-point  70 :       0.3846    0.3077    0.2308
  band No.  band energies     occupation 
      1      -0.1337      2.00000
      2       1.9842      2.00000
      3       3.3728      2.00000
      4       4.7026      2.00000
      5       5.5149      2.00000
      6       6.8275      2.00000
      7       8.1773      2.00000
      8      10.1995      0.00000
      9      13.1036      0.00000
     10      14.2917      0.00000
     11      15.2263      0.00000
     12      15.6241      0.00000
     13      16.2855      0.00000
     14      16.3523      0.00000
     15      18.0916      0.00000
     16      19.3925      0.00000

 k-point  71 :       0.4615    0.3077    0.2308
  band No.  band energies     occupation 
      1       0.4676      2.00000
      2       1.1743      2.00000
      3       3.9518      2.00000
      4       4.6040      2.00000
      5       5.4039      2.00000
      6       6.0503      2.00000
      7       8.7504      0.00000
      8       9.4251      0.00000
      9      13.6356      0.00000
     10      14.1870      0.00000
     11      15.1570      0.00000
     12      15.6798      0.00000
     13      16.7217      0.00000
     14      17.3822      0.00000
     15      17.5968      0.00000
     16      19.3973      0.00000

 k-point  72 :       0.3846    0.3846    0.2308
  band No.  band energies     occupation 
      1       0.3585      2.00000
      2       2.4679      2.00000
      3       2.4679      2.00000
      4       4.5009      2.00000
      5       5.2982      2.00000
      6       7.2972      2.00000
      7       7.2972      2.00000
      8       9.3251      0.00000
      9      13.5674      0.00000
     10      15.3921      0.00000
     11      15.3921      0.00000
     12      16.3041      0.00000
     13      16.3041      0.00000
     14      17.3658      0.00000
     15      17.3769      0.00000
     16      19.2730      0.00000

 k-point  73 :       0.4615    0.3846    0.2308
  band No.  band energies     occupation 
      1       0.9575      2.00000
      2       1.6614      2.00000
      3       3.0555      2.00000
      4       3.7423      2.00000
      5       5.8409      2.00000
      6       6.5163      2.00000
      7       7.8713      2.00000
      8       8.5480      2.00000
      9      14.1164      0.00000
     10      14.7416      0.00000
     11      16.0129      0.00000
     12      16.6581      0.00000
     13      16.7535      0.00000
     14      17.2563      0.00000
     15      18.0067      0.00000
     16      19.7488      0.00000

 k-point  74 :       0.4615    0.4615    0.2308
  band No.  band energies     occupation 
      1       1.5536      2.00000
      2       2.2539      2.00000
      3       2.2539      2.00000
      4       2.9494      2.00000
      5       6.4121      2.00000
      6       7.0906      2.00000
      7       7.0906      2.00000
      8       7.7688      2.00000
      9      14.6731      0.00000
     10      15.3101      0.00000
     11      15.3101      0.00000
     12      15.9505      0.00000
     13      18.4141      0.00000
     14      18.4141      0.00000
     15      18.4251      0.00000
     16      19.6635      0.00000

 k-point  75 :       0.3077    0.3077    0.3077
  band No.  band energies     occupation 
      1      -0.2433      2.00000
      2       3.2662      2.00000
      3       3.2662      2.00000
      4       3.2662      2.00000
      5       6.7291      2.00000
      6       6.7291      2.00000
      7       6.7291      2.00000
      8      10.1040      0.00000
      9      14.3061      0.00000
     10      14.3061      0.00000
     11      14.3061      0.00000
     12      16.8504      0.00000
     13      16.8504      0.00000
     14      16.8504      0.00000
     15      18.6729      0.00000
     16      18.6729      0.00000

 k-point  76 :       0.3846    0.3077    0.3077
  band No.  band energies     occupation 
      1       0.2493      2.00000
      2       2.3605      2.00000
      3       3.7400      2.00000
      4       3.7400      2.00000
      5       5.8479      2.00000
      6       5.8479      2.00000
      7       7.1993      2.00000
      8       9.2290      0.00000
      9      14.7437      0.00000
     10      14.7437      0.00000
     11      16.0411      0.00000
     12      16.6328      0.00000
     13      16.6328      0.00000
     14      17.2754      0.00000
     15      19.1087      0.00000
     16      19.1190      0.00000

 k-point  77 :       0.4615    0.3077    0.3077
  band No.  band energies     occupation 
      1       0.8488      2.00000
      2       1.5533      2.00000
      3       4.2901      2.00000
      4       4.2901      2.00000
      5       5.0932      2.00000
      6       5.0932      2.00000
      7       7.7740      2.00000
      8       8.4513      2.00000
      9      15.2037      0.00000
     10      15.2037      0.00000
     11      16.0903      0.00000
     12      16.0903      0.00000
     13      17.7953      0.00000
     14      17.8296      0.00000
     15      18.4100      0.00000
     16      19.5654      0.00000

 k-point  78 :       0.3846    0.3846    0.3077
  band No.  band energies     occupation 
      1       0.7401      2.00000
      2       2.8419      2.00000
      3       2.8419      2.00000
      4       4.1853      2.00000
      5       4.9887      2.00000
      6       6.3151      2.00000
      7       6.3151      2.00000
      8       8.3506      2.00000
      9      15.2078      0.00000
     10      16.4212      0.00000
     11      16.4212      0.00000
     12      17.1132      0.00000
     13      17.1132      0.00000
     14      17.7078      0.00000
     15      18.8018      0.00000
     16      19.5946      0.00000

 k-point  79 :       0.4615    0.3846    0.3077
  band No.  band energies     occupation 
      1       1.3372      2.00000
      2       2.0388      2.00000
      3       3.4242      2.00000
      4       4.0826      2.00000
      5       4.8807      2.00000
      6       5.5333      2.00000
      7       6.8906      2.00000
      8       7.5700      2.00000
      9      15.7373      0.00000
     10      16.2941      0.00000
     11      17.1329      0.00000
     12      17.5034      0.00000
     13      17.5964      0.00000
     14      18.1436      0.00000
     15      18.3261      0.00000
     16      20.0312      0.00000

 k-point  80 :       0.4615    0.4615    0.3077
  band No.  band energies     occupation 
      1       1.9314      2.00000
      2       2.6288      2.00000
      3       2.6288      2.00000
      4       3.3186      2.00000
      5       5.4281      2.00000
      6       6.1066      2.00000
      7       6.1066      2.00000
      8       6.7872      2.00000
      9      16.2865      0.00000
     10      16.8927      0.00000
     11      16.8927      0.00000
     12      17.5109      0.00000
     13      18.7409      0.00000
     14      18.7409      0.00000
     15      18.7561      0.00000
     16      19.9917      0.00000

 k-point  81 :       0.3846    0.3846    0.3846
  band No.  band energies     occupation 
      1       1.2290      2.00000
      2       3.3180      2.00000
      3       3.3180      2.00000
      4       3.3180      2.00000
      5       5.4299      2.00000
      6       5.4299      2.00000
      7       5.4299      2.00000
      8       7.4686      2.00000
      9      16.9179      0.00000
     10      16.9179      0.00000
     11      16.9179      0.00000
     12      18.1337      0.00000
     13      18.1337      0.00000
     14      18.1337      0.00000
     15      19.9742      0.00000
     16      19.9758      0.00000

 k-point  82 :       0.4615    0.3846    0.3846
  band No.  band energies     occupation 
      1       1.8236      2.00000
      2       2.5217      2.00000
      3       3.8730      2.00000
      4       3.8730      2.00000
      5       4.6695      2.00000
      6       4.6695      2.00000
      7       6.0038      2.00000
      8       6.6851      2.00000
      9      17.3894      0.00000
     10      17.3894      0.00000
     11      18.0528      0.00000
     12      18.0528      0.00000
     13      18.6546      0.00000
     14      18.6579      0.00000
     15      19.2704      0.00000
     16      20.2292      0.00000

 k-point  83 :       0.4615    0.4615    0.3846
  band No.  band energies     occupation 
      1       2.4147      2.00000
      2       3.1061      2.00000
      3       3.1061      2.00000
      4       3.7686      2.00000
      5       4.5627      2.00000
      6       5.2195      2.00000
      7       5.2195      2.00000
      8       5.8996      2.00000
      9      17.9448      0.00000
     10      18.4661      0.00000
     11      18.4661      0.00000
     12      19.0447      0.00000
     13      19.1499      0.00000
     14      19.1499      0.00000
     15      19.1813      0.00000
     16      20.3942      0.00000

 k-point  84 :       0.4615    0.4615    0.4615
  band No.  band energies     occupation 
      1       2.9998      2.00000
      2       3.6638      2.00000
      3       3.6638      2.00000
      4       3.6638      2.00000
      5       4.4561      2.00000
      6       4.4561      2.00000
      7       4.4561      2.00000
      8       5.1144      2.00000
      9      19.5610      0.00000
     10      19.5610      0.00000
     11      19.5610      0.00000
     12      19.6988      0.00000
     13      19.6988      0.00000
     14      19.6988      0.00000
     15      20.2915      0.00000
     16      20.2915      0.00000


--------------------------------------------------------------------------------------------------------


 soft charge-density along one line, spin component           1
         0         1         2         3         4         5         6         7         8         9
 total charge-density along one line
 
 pseudopotential strength for first ion, spin component:           1
  8.423  -0.007  -0.000   0.000  -0.000  -0.000   0.000  -0.000
 -0.007   0.000  -0.000   0.000  -0.000   0.000  -0.000   0.000
 -0.000  -0.000   1.991   0.000   0.000  -0.029  -0.000  -0.000
  0.000   0.000   0.000   1.991   0.000  -0.000  -0.029  -0.000
 -0.000  -0.000   0.000   0.000   1.991  -0.000  -0.000  -0.029
 -0.000   0.000  -0.029  -0.000  -0.000  -0.011  -0.000  -0.000
  0.000  -0.000  -0.000  -0.029  -0.000  -0.000  -0.011  -0.000
 -0.000   0.000  -0.000  -0.000  -0.029  -0.000  -0.000  -0.011
 total augmentation occupancy for first ion, spin component:           1
  1.312  -0.550   0.000  -0.000  -0.000   0.000  -0.000  -0.000
 -0.550   0.550   0.000  -0.000   0.000  -0.000   0.000  -0.000
  0.000   0.000   0.774  -0.062   0.033  -0.171   0.015   0.003
 -0.000  -0.000  -0.062   0.870   0.002   0.015  -0.141   0.007
 -0.000   0.000   0.033   0.002   0.703   0.003   0.007  -0.178
  0.000  -0.000  -0.171   0.015   0.003   0.042  -0.003  -0.002
 -0.000   0.000   0.015  -0.141   0.007  -0.003   0.026  -0.002
 -0.000  -0.000   0.003   0.007  -0.178  -0.002  -0.002   0.051


------------------------ aborting loop because EDIFF is reached ----------------------------------------




--------------------------------------------------------------------------------------------------------


    CHARGE:  VPU time    0.03: CPU time    0.03
    FORLOC:  VPU time    0.00: CPU time    0.00
    FORNL :  VPU time    0.06: CPU time    0.06
    STRESS:  VPU time    0.47: CPU time    0.47
    FORCOR:  VPU time    0.02: CPU time    0.02
    FORHAR:  VPU time    0.00: CPU time    0.00
    MIXING:  VPU time    0.00: CPU time    0.00


--------------------------------------------------------------------------------------------------------



  FREE ENERGIE OF THE ION-ELECTRON SYSTEM (eV)
  ---------------------------------------------------
  free  energy   TOTEN  =       -14.920865 eV

  energy  without entropy=      -14.920760  energy(sigma->0) =      -14.920812
 

  FORCE on cell =-STRESS in cart. coord.  units (eV/reduce length):
  Direction    X        Y        Z        XY       YZ       ZX
  --------------------------------------------------------------------------------------
  Alpha Z     -0.87     -0.87     -0.87
  Ewald     -100.12   -100.12   -100.12      0.00      0.00      0.00
  Hartree      0.15      0.15      0.15     -0.00     -0.00     -0.00
  E(xc)      -34.97    -34.97    -34.97      0.00     -0.00     -0.00
  Local        2.45      2.45      2.45     -0.00     -0.00      0.00
  n-local     75.60     76.51     78.72      0.38      1.28      0.53
  augment     -4.00     -4.00     -4.00      0.00      0.00      0.00
  Kinetic     59.67     62.12     65.95      2.05     -8.49     -1.23
  -------------------------------------------------------------------------------------
  Total        2.17      2.17      2.17      0.00     -0.00     -0.00
  in kB       56.23     56.23     56.23      0.00     -0.00     -0.00
  external pressure =       56.23 kB  Pullay stress =        0.00 kB


 VOLUME and BASIS-vectors are now :
 -----------------------------------------------------------------------------
  energy-cutoff  :      500.00
  volume of cell :       61.94
      direct lattice vectors                 reciprocal lattice vectors
     3.956560242  0.000000000  0.000000000     0.252744793  0.000000000  0.000000000
     0.000000000  3.956560242  0.000000000     0.000000000  0.252744793  0.000000000
     0.000000000  0.000000000  3.956560242     0.000000000  0.000000000  0.252744793

  length of vectors
     3.956560242  3.956560242  3.956560242     0.252744793  0.252744793  0.252744793


 FORCES acting on ions
    electron-ion (+dipol)            ewald-force                    non-local-force                 convergence-correction
 -----------------------------------------------------------------------------------------------
   -.181E-14 -.120E-13 -.154E-13   0.242E-15 -.113E-17 -.507E-16   0.146E-26 -.202E-26 -.242E-26   0.776E-15 -.121E-16 0.105E-15
   -.147E-14 0.710E-15 0.266E-13   0.195E-15 -.232E-15 0.299E-15   0.162E-26 0.485E-26 -.242E-26   0.781E-15 0.118E-16 -.103E-15
   -.306E-14 -.376E-14 -.236E-14   -.135E-15 0.373E-15 0.279E-15   -.565E-26 -.808E-27 0.242E-26   -.786E-15 -.149E-16 -.102E-15
   -.294E-14 -.623E-15 0.110E-14   -.182E-15 0.142E-15 -.769E-15   -.263E-26 -.485E-26 0.000E+00   -.783E-15 0.167E-16 0.101E-15
 -----------------------------------------------------------------------------------------------
   -.928E-14 -.157E-13 0.100E-13   0.120E-15 0.281E-15 -.242E-15   -.520E-26 -.283E-26 -.242E-26   -.125E-16 0.141E-17 0.418E-18
 
 
 POSITION                                       TOTAL-FORCE (eV/Angst)
 -----------------------------------------------------------------------------------
      1.97828      1.97828      0.00000         0.000000      0.000000     -0.000000
      1.97828      0.00000      1.97828         0.000000      0.000000     -0.000000
      0.00000      1.97828      1.97828         0.000000     -0.000000     -0.000000
      0.00000      0.00000      0.00000         0.000000     -0.000000      0.000000
 -----------------------------------------------------------------------------------
    total drift:                               -0.000000     -0.000000      0.000000


--------------------------------------------------------------------------------------------------------



 mean value of Nose-termostat <S>:     1.000 mean value of <T> :     0.000
 mean temperature <T/S>/<1/S>  :     0.000

     LOOP+:  VPU time   12.33: CPU time   12.60
  
  
 General timing and accounting informations for this job:
 ========================================================
  
                  Total CPU time used (sec):       12.923
                            User time (sec):        8.929
                          System time (sec):        3.994
                         Elapsed time (sec):       13.208
  
                   Maximum memory used (kb):      161588.
                   Average memory used (kb):           0.
  
                          Minor page faults:        37644
                          Major page faults:            0
                 Voluntary context switches:          846
