 running on    4 nodes
 distr:  one band on    1 nodes,    4 groups
 vasp.4.6.28 25Jul05 complex 
 POSCAR found :  1 types and   32 ions

 ----------------------------------------------------------------------------- 
|                                                                             |
|  ADVICE TO THIS USER RUNNING 'VASP/VAMP'   (HEAR YOUR MASTER'S VOICE ...):  |
|                                                                             |
|      You have a (more or less) 'large supercell' and for larger cells       |
|      it might be more efficient to use real space projection operators      |
|      So try LREAL= Auto  in the INCAR   file.                               |
|      Mind: If you want to do an extremely accurate calculations keep the    |
|      reciprocal projection scheme          (i.e. LREAL=.FALSE.)             |
|                                                                             |
 ----------------------------------------------------------------------------- 

 LDA part: xc-table for Pade appr. of Perdew
 POSCAR, INCAR and KPOINTS ok, starting setup
 FFT: planning ...           1
 reading WAVECAR
 WARNING: random wavefunctions but no delay for mixing, default for NELMDL
 entering main loop
       N       E                     dE             d eps       ncg     rms          rms(c)
DAV:   1     0.115898676336E+03    0.11590E+03   -0.32018E+04 26656   0.109E+03
DAV:   2    -0.105372646976E+03   -0.22127E+03   -0.20662E+03 31448   0.136E+02
DAV:   3    -0.118676512716E+03   -0.13304E+02   -0.12603E+02 33108   0.267E+01
DAV:   4    -0.118977617151E+03   -0.30110E+00   -0.29746E+00 31620   0.420E+00
DAV:   5    -0.118981776761E+03   -0.41596E-02   -0.41535E-02 31632   0.579E-01    0.501E+00
DAV:   6    -0.118589510298E+03    0.39227E+00   -0.67640E-02 30804   0.843E-01    0.311E+00
DAV:   7    -0.118305991786E+03    0.28352E+00   -0.19675E-01 29500   0.135E+00    0.136E-01
DAV:   8    -0.118305905042E+03    0.86743E-04   -0.15213E-03 31796   0.144E-01    0.409E-02
DAV:   9    -0.118305921020E+03   -0.15978E-04   -0.50795E-05 31300   0.207E-02    0.314E-03
DAV:  10    -0.118305919202E+03    0.18183E-05   -0.17620E-06 32120   0.442E-03    0.180E-03
DAV:  11    -0.118305915774E+03    0.34284E-05   -0.14276E-07 31340   0.111E-03    0.639E-04
DAV:  12    -0.118305914731E+03    0.10426E-05   -0.19707E-08 20304   0.424E-04    0.937E-05
DAV:  13    -0.118305914642E+03    0.89487E-07   -0.31333E-09 17484   0.190E-04    0.309E-05
DAV:  14    -0.118305914652E+03   -0.10784E-07   -0.46957E-10 16992   0.762E-05    0.976E-06
DAV:  15    -0.118305914673E+03   -0.20244E-07   -0.12744E-10 16672   0.404E-05    0.474E-06
DAV:  16    -0.118305914677E+03   -0.40450E-08   -0.29042E-11 16496   0.183E-05
   1 F= -.11830591E+03 E0= -.11830561E+03  d E =-.603521E-03
