  32  32   0   0
  0.1850611E+02  0.8397597E-09  0.8397597E-09  0.8397597E-09  0.5000000E-15
  1.000000000000000E-004
  CAR 
 unknown system                          
     10.89648354     -4.19774534  301      6.85857907      1.00000000
     -4.198  0.0000E+00  0.0000E+00
     -4.147  0.0000E+00  0.0000E+00
     -4.097  0.0000E+00  0.0000E+00
     -4.047  0.0000E+00  0.0000E+00
     -3.996  0.0000E+00  0.0000E+00
     -3.946  0.0000E+00  0.0000E+00
     -3.896  0.0000E+00  0.0000E+00
     -3.846  0.0000E+00  0.0000E+00
     -3.795  0.0000E+00  0.0000E+00
     -3.745  0.0000E+00  0.0000E+00
     -3.695  0.0000E+00  0.0000E+00
     -3.644  0.0000E+00  0.0000E+00
     -3.594  0.0000E+00  0.0000E+00
     -3.544  0.6848E-07  0.3445E-08
     -3.493  0.1371E+00  0.6898E-02
     -3.443  0.7660E+00  0.4544E-01
     -3.393  0.1164E+01  0.1040E+00
     -3.342  0.1851E+01  0.1971E+00
     -3.292  0.1845E+01  0.2900E+00
     -3.242  0.2059E+01  0.3936E+00
     -3.191  0.2478E+01  0.5182E+00
     -3.141  0.1634E+01  0.6004E+00
     -3.091  0.3020E+01  0.7524E+00
     -3.041  0.2367E+01  0.8715E+00
     -2.990  0.3474E+01  0.1046E+01
     -2.940  0.2727E+01  0.1183E+01
     -2.890  0.3937E+01  0.1382E+01
     -2.839  0.3388E+01  0.1552E+01
     -2.789  0.2206E+01  0.1663E+01
     -2.739  0.4301E+01  0.1879E+01
     -2.688  0.3980E+01  0.2080E+01
     -2.638  0.3212E+01  0.2241E+01
     -2.588  0.3858E+01  0.2435E+01
     -2.537  0.4811E+01  0.2678E+01
     -2.487  0.4521E+01  0.2905E+01
     -2.437  0.3446E+01  0.3078E+01
     -2.386  0.5230E+01  0.3342E+01
     -2.336  0.2943E+01  0.3490E+01
     -2.286  0.5059E+01  0.3744E+01
     -2.235  0.4230E+01  0.3957E+01
     -2.185  0.7201E+01  0.4319E+01
     -2.135  0.3483E+01  0.4495E+01
     -2.085  0.3765E+01  0.4684E+01
     -2.034  0.6883E+01  0.5030E+01
     -1.984  0.4291E+01  0.5246E+01
     -1.934  0.5054E+01  0.5500E+01
     -1.883  0.4587E+01  0.5731E+01
     -1.833  0.5845E+01  0.6025E+01
     -1.783  0.5655E+01  0.6310E+01
     -1.732  0.5751E+01  0.6599E+01
     -1.682  0.6501E+01  0.6926E+01
     -1.632  0.4763E+01  0.7166E+01
     -1.581  0.5830E+01  0.7459E+01
     -1.531  0.5663E+01  0.7744E+01
     -1.481  0.6362E+01  0.8064E+01
     -1.430  0.3780E+01  0.8255E+01
     -1.380  0.7961E+01  0.8655E+01
     -1.330  0.7408E+01  0.9028E+01
     -1.280  0.6728E+01  0.9366E+01
     -1.229  0.5004E+01  0.9618E+01
     -1.179  0.5343E+01  0.9887E+01
     -1.129  0.7058E+01  0.1024E+02
     -1.078  0.5348E+01  0.1051E+02
     -1.028  0.8108E+01  0.1092E+02
     -0.978  0.7762E+01  0.1131E+02
     -0.927  0.4539E+01  0.1154E+02
     -0.877  0.8763E+01  0.1198E+02
     -0.827  0.7329E+01  0.1235E+02
     -0.776  0.6849E+01  0.1269E+02
     -0.726  0.2904E+01  0.1284E+02
     -0.676  0.9539E+01  0.1332E+02
     -0.625  0.6375E+01  0.1364E+02
     -0.575  0.7927E+01  0.1404E+02
     -0.525  0.9058E+01  0.1449E+02
     -0.475  0.8162E+01  0.1490E+02
     -0.424  0.6479E+01  0.1523E+02
     -0.374  0.5330E+01  0.1550E+02
     -0.324  0.7118E+01  0.1586E+02
     -0.273  0.7091E+01  0.1621E+02
     -0.223  0.8680E+01  0.1665E+02
     -0.173  0.8949E+01  0.1710E+02
     -0.122  0.9282E+01  0.1757E+02
     -0.072  0.7457E+01  0.1794E+02
     -0.022  0.5356E+01  0.1821E+02
      0.029  0.9484E+01  0.1869E+02
      0.079  0.7375E+01  0.1906E+02
      0.129  0.8639E+01  0.1949E+02
      0.180  0.5583E+01  0.1978E+02
      0.230  0.9183E+01  0.2024E+02
      0.280  0.8438E+01  0.2066E+02
      0.331  0.9872E+01  0.2116E+02
      0.381  0.1095E+02  0.2171E+02
      0.431  0.5740E+01  0.2200E+02
      0.481  0.8769E+01  0.2244E+02
      0.532  0.7500E+01  0.2282E+02
      0.582  0.7440E+01  0.2319E+02
      0.632  0.7518E+01  0.2357E+02
      0.683  0.1037E+02  0.2409E+02
      0.733  0.1003E+02  0.2460E+02
      0.783  0.9899E+01  0.2509E+02
      0.834  0.9079E+01  0.2555E+02
      0.884  0.7738E+01  0.2594E+02
      0.934  0.1040E+02  0.2646E+02
      0.985  0.4786E+01  0.2670E+02
      1.035  0.1211E+02  0.2731E+02
      1.085  0.6137E+01  0.2762E+02
      1.136  0.1029E+02  0.2814E+02
      1.186  0.1204E+02  0.2875E+02
      1.236  0.1020E+02  0.2926E+02
      1.286  0.8266E+01  0.2968E+02
      1.337  0.5540E+01  0.2995E+02
      1.387  0.1380E+02  0.3065E+02
      1.437  0.9755E+01  0.3114E+02
      1.488  0.7580E+01  0.3152E+02
      1.538  0.9077E+01  0.3198E+02
      1.588  0.1169E+02  0.3257E+02
      1.639  0.6794E+01  0.3291E+02
      1.689  0.1116E+02  0.3347E+02
      1.739  0.1087E+02  0.3402E+02
      1.790  0.8844E+01  0.3446E+02
      1.840  0.1134E+02  0.3503E+02
      1.890  0.1157E+02  0.3561E+02
      1.941  0.9170E+01  0.3608E+02
      1.991  0.6764E+01  0.3642E+02
      2.041  0.1088E+02  0.3696E+02
      2.092  0.1153E+02  0.3754E+02
      2.142  0.1042E+02  0.3807E+02
      2.192  0.1039E+02  0.3859E+02
      2.242  0.9890E+01  0.3909E+02
      2.293  0.1267E+02  0.3973E+02
      2.343  0.8635E+01  0.4016E+02
      2.393  0.1107E+02  0.4072E+02
      2.444  0.1019E+02  0.4123E+02
      2.494  0.1125E+02  0.4180E+02
      2.544  0.6963E+01  0.4215E+02
      2.595  0.1603E+02  0.4295E+02
      2.645  0.9781E+01  0.4344E+02
      2.695  0.9630E+01  0.4393E+02
      2.746  0.1173E+02  0.4452E+02
      2.796  0.1050E+02  0.4505E+02
      2.846  0.9600E+01  0.4553E+02
      2.897  0.9752E+01  0.4602E+02
      2.947  0.1412E+02  0.4673E+02
      2.997  0.8886E+01  0.4718E+02
      3.047  0.1299E+02  0.4783E+02
      3.098  0.1297E+02  0.4848E+02
      3.148  0.9644E+01  0.4897E+02
      3.198  0.1296E+02  0.4962E+02
      3.249  0.1074E+02  0.5016E+02
      3.299  0.9791E+01  0.5065E+02
      3.349  0.8192E+01  0.5107E+02
      3.400  0.1367E+02  0.5175E+02
      3.450  0.1177E+02  0.5235E+02
      3.500  0.1642E+02  0.5317E+02
      3.551  0.9046E+01  0.5363E+02
      3.601  0.1257E+02  0.5426E+02
      3.651  0.1039E+02  0.5478E+02
      3.702  0.1291E+02  0.5543E+02
      3.752  0.1286E+02  0.5608E+02
      3.802  0.8865E+01  0.5653E+02
      3.853  0.1345E+02  0.5720E+02
      3.903  0.1110E+02  0.5776E+02
      3.953  0.1596E+02  0.5856E+02
      4.003  0.8020E+01  0.5897E+02
      4.054  0.1769E+02  0.5986E+02
      4.104  0.1028E+02  0.6037E+02
      4.154  0.1153E+02  0.6095E+02
      4.205  0.1021E+02  0.6147E+02
      4.255  0.1972E+02  0.6246E+02
      4.305  0.1308E+02  0.6312E+02
      4.356  0.1060E+02  0.6365E+02
      4.406  0.1353E+02  0.6433E+02
      4.456  0.1139E+02  0.6491E+02
      4.507  0.1368E+02  0.6559E+02
      4.557  0.1232E+02  0.6621E+02
      4.607  0.1670E+02  0.6705E+02
      4.658  0.7937E+01  0.6745E+02
      4.708  0.1056E+02  0.6798E+02
      4.758  0.1471E+02  0.6872E+02
      4.808  0.1734E+02  0.6960E+02
      4.859  0.9921E+01  0.7010E+02
      4.909  0.1230E+02  0.7072E+02
      4.959  0.1408E+02  0.7142E+02
      5.010  0.7864E+01  0.7182E+02
      5.060  0.1454E+02  0.7255E+02
      5.110  0.1119E+02  0.7311E+02
      5.161  0.1211E+02  0.7372E+02
      5.211  0.9222E+01  0.7419E+02
      5.261  0.1206E+02  0.7479E+02
      5.312  0.1467E+02  0.7553E+02
      5.362  0.1619E+02  0.7635E+02
      5.412  0.1228E+02  0.7696E+02
      5.463  0.1132E+02  0.7753E+02
      5.513  0.9674E+01  0.7802E+02
      5.563  0.1071E+02  0.7856E+02
      5.614  0.1499E+02  0.7931E+02
      5.664  0.9154E+01  0.7977E+02
      5.714  0.1939E+02  0.8075E+02
      5.764  0.9856E+01  0.8125E+02
      5.815  0.1298E+02  0.8190E+02
      5.865  0.1396E+02  0.8260E+02
      5.915  0.1838E+02  0.8353E+02
      5.966  0.1014E+02  0.8404E+02
      6.016  0.1280E+02  0.8468E+02
      6.066  0.1012E+02  0.8519E+02
      6.117  0.1351E+02  0.8587E+02
      6.167  0.1256E+02  0.8650E+02
      6.217  0.1502E+02  0.8726E+02
      6.268  0.1491E+02  0.8801E+02
      6.318  0.1142E+02  0.8858E+02
      6.368  0.1644E+02  0.8941E+02
      6.419  0.1319E+02  0.9007E+02
      6.469  0.1385E+02  0.9077E+02
      6.519  0.1258E+02  0.9140E+02
      6.569  0.1697E+02  0.9226E+02
      6.620  0.1054E+02  0.9279E+02
      6.670  0.1316E+02  0.9345E+02
      6.720  0.1583E+02  0.9424E+02
      6.771  0.1151E+02  0.9482E+02
      6.821  0.1587E+02  0.9562E+02
      6.871  0.1081E+02  0.9617E+02
      6.922  0.1710E+02  0.9703E+02
      6.972  0.1190E+02  0.9763E+02
      7.022  0.1701E+02  0.9848E+02
      7.073  0.1453E+02  0.9921E+02
      7.123  0.1420E+02  0.9993E+02
      7.173  0.1157E+02  0.1005E+03
      7.224  0.1377E+02  0.1012E+03
      7.274  0.1494E+02  0.1020E+03
      7.324  0.1618E+02  0.1028E+03
      7.374  0.1713E+02  0.1036E+03
      7.425  0.1640E+02  0.1045E+03
      7.475  0.1252E+02  0.1051E+03
      7.525  0.1166E+02  0.1057E+03
      7.576  0.1388E+02  0.1064E+03
      7.626  0.1174E+02  0.1070E+03
      7.676  0.1810E+02  0.1079E+03
      7.727  0.1162E+02  0.1085E+03
      7.777  0.1171E+02  0.1090E+03
      7.827  0.2050E+02  0.1101E+03
      7.878  0.2003E+02  0.1111E+03
      7.928  0.1246E+02  0.1117E+03
      7.978  0.1669E+02  0.1126E+03
      8.029  0.1384E+02  0.1132E+03
      8.079  0.1421E+02  0.1140E+03
      8.129  0.1507E+02  0.1147E+03
      8.180  0.1394E+02  0.1154E+03
      8.230  0.1235E+02  0.1160E+03
      8.280  0.1299E+02  0.1167E+03
      8.330  0.1867E+02  0.1176E+03
      8.381  0.1729E+02  0.1185E+03
      8.431  0.1521E+02  0.1193E+03
      8.481  0.1337E+02  0.1199E+03
      8.532  0.1640E+02  0.1208E+03
      8.582  0.1299E+02  0.1214E+03
      8.632  0.1682E+02  0.1223E+03
      8.683  0.1418E+02  0.1230E+03
      8.733  0.1531E+02  0.1238E+03
      8.783  0.1425E+02  0.1245E+03
      8.834  0.1972E+02  0.1255E+03
      8.884  0.1241E+02  0.1261E+03
      8.934  0.1539E+02  0.1269E+03
      8.985  0.1448E+02  0.1276E+03
      9.035  0.1199E+02  0.1282E+03
      9.085  0.1247E+02  0.1288E+03
      9.135  0.1165E+02  0.1294E+03
      9.186  0.1856E+02  0.1303E+03
      9.236  0.9299E+01  0.1308E+03
      9.286  0.1433E+02  0.1315E+03
      9.337  0.1090E+02  0.1321E+03
      9.387  0.1425E+02  0.1328E+03
      9.437  0.9978E+01  0.1333E+03
      9.488  0.1344E+02  0.1340E+03
      9.538  0.4813E+01  0.1342E+03
      9.588  0.9782E+01  0.1347E+03
      9.639  0.7157E+01  0.1351E+03
      9.689  0.7725E+01  0.1355E+03
      9.739  0.3399E+01  0.1356E+03
      9.790  0.2889E+01  0.1358E+03
      9.840  0.1449E+01  0.1358E+03
      9.890  0.4536E+00  0.1359E+03
      9.941  0.1050E+01  0.1359E+03
      9.991  0.6057E+00  0.1360E+03
     10.041  0.1298E-02  0.1360E+03
     10.091  0.8728E+00  0.1360E+03
     10.142  0.1717E-04  0.1360E+03
     10.192  0.8384E-03  0.1360E+03
     10.242  0.9118E-01  0.1360E+03
     10.293  0.0000E+00  0.1360E+03
     10.343  0.0000E+00  0.1360E+03
     10.393  0.0000E+00  0.1360E+03
     10.444  0.0000E+00  0.1360E+03
     10.494  0.0000E+00  0.1360E+03
     10.544  0.0000E+00  0.1360E+03
     10.595  0.0000E+00  0.1360E+03
     10.645  0.0000E+00  0.1360E+03
     10.695  0.0000E+00  0.1360E+03
     10.746  0.0000E+00  0.1360E+03
     10.796  0.0000E+00  0.1360E+03
     10.846  0.0000E+00  0.1360E+03
     10.896  0.0000E+00  0.1360E+03
