   32   32    1    1
  0.1850611E+02  0.8397597E-09  0.8397597E-09  0.8397597E-09  0.5000000E-15
  1.000000000000000E-004
  CAR 
 unknown system                          
   96  196   68
 
  0.0000000E+00  0.0000000E+00  0.0000000E+00  0.5787037E-03
   1       -3.5116
   2       -1.4297
   3       -1.4262
   4       -1.4262
   5       -1.4262
   6       -1.4262
   7       -1.4227
   8        0.6260
   9        0.6304
  10        0.6304
  11        0.6319
  12        0.6320
  13        0.6320
  14        0.6320
  15        0.6320
  16        0.6321
  17        0.6336
  18        0.6336
  19        0.6380
  20        2.6203
  21        2.6204
  22        2.6204
  23        2.6204
  24        2.7095
  25        2.7095
  26        2.7095
  27        2.7096
  28        4.2068
  29        4.2068
  30        4.2068
  31        5.2483
  32        5.2483
  33        5.2483
  34        6.1492
  35        6.1492
  36        6.1532
  37        6.1532
  38        6.1533
  39        6.1533
  40        6.1533
  41        6.1533
  42        6.1534
  43        6.1534
  44        6.1574
  45        6.1574
  46        7.2111
  47        7.2150
  48        7.2150
  49        7.2150
  50        7.2150
  51        7.2188
  52        7.3528
  53        7.3537
  54        7.3537
  55        7.3537
  56        7.3537
  57        7.3545
  58        8.0976
  59        8.0986
  60        8.0997
  61        8.1014
  62        8.1015
  63        8.1015
  64        8.1015
  65        8.1016
  66        8.1030
  67        8.1043
  68        8.1054
 
  0.8333333E-01  0.0000000E+00  0.0000000E+00  0.1157407E-02
   1       -3.4971
   2       -1.7574
   3       -1.4118
   4       -1.4118
   5       -1.4118
   6       -1.4118
   7       -1.0670
   8        0.3050
   9        0.3050
  10        0.3050
  11        0.3050
  12        0.6462
  13        0.6462
  14        0.6462
  15        0.6462
  16        0.9866
  17        0.9866
  18        0.9866
  19        0.9867
  20        2.3390
  21        2.3390
  22        2.3390
  23        2.3390
  24        3.0182
  25        3.0182
  26        3.0182
  27        3.0182
  28        3.8911
  29        4.2203
  30        4.2203
  31        5.2626
  32        5.2626
  33        5.5897
  34        5.8420
  35        5.8420
  36        5.8596
  37        5.8596
  38        5.8596
  39        5.8596
  40        6.1668
  41        6.1668
  42        6.1668
  43        6.1668
  44        6.4917
  45        6.4917
  46        6.9569
  47        6.9569
  48        7.2854
  49        7.2855
  50        7.2855
  51        7.2855
  52        7.6156
  53        7.6158
  54        7.6158
  55        7.6158
  56        7.6372
  57        7.6374
  58        7.7901
  59        7.7901
  60        7.7902
  61        7.7902
  62        7.8195
  63        7.8195
  64        7.8196
  65        7.8196
  66        8.4399
  67        8.4399
  68        8.4399
 
  0.1666667E+00  0.0000000E+00  0.0000000E+00  0.1157407E-02
   1       -3.4534
   2       -2.0605
   3       -1.3687
   4       -1.3686
   5       -1.3686
   6       -1.3686
   7       -0.6800
   8        0.0059
   9        0.0059
  10        0.0059
  11        0.0059
  12        0.6888
  13        0.6888
  14        0.6888
  15        0.6888
  16        1.3686
  17        1.3686
  18        1.3686
  19        1.3686
  20        2.0450
  21        2.0450
  22        2.0450
  23        2.0450
  24        3.3396
  25        3.3941
  26        3.3941
  27        3.3941
  28        3.3941
  29        4.2608
  30        4.2608
  31        5.3054
  32        5.3057
  33        5.3274
  34        5.3274
  35        5.3274
  36        5.3276
  37        5.5580
  38        5.5580
  39        6.2074
  40        6.2074
  41        6.2074
  42        6.2074
  43        6.2179
  44        6.6663
  45        6.6663
  46        6.8573
  47        6.8573
  48        7.2994
  49        7.2994
  50        7.2994
  51        7.2995
  52        7.3361
  53        7.3361
  54        7.3361
  55        7.3362
  56        7.5061
  57        7.5061
  58        7.5061
  59        7.5061
  60        8.0040
  61        8.0040
  62        8.2139
  63        8.2139
  64        8.2139
  65        8.2139
  66        8.6643
  67        8.6643
  68        8.6643
 
  0.2500000E+00  0.0000000E+00  0.0000000E+00  0.1157407E-02
   1       -3.3805
   2       -2.3352
   3       -1.2968
   4       -1.2968
   5       -1.2968
   6       -1.2968
   7       -0.2680
   8       -0.2652
   9       -0.2652
  10       -0.2652
  11       -0.2629
  12        0.7597
  13        0.7597
  14        0.7597
  15        0.7597
  16        1.7744
  17        1.7765
  18        1.7765
  19        1.7777
  20        1.7777
  21        1.7790
  22        1.7790
  23        1.7810
  24        2.7648
  25        3.7978
  26        3.7978
  27        3.7978
  28        3.7978
  29        4.3283
  30        4.3283
  31        4.7649
  32        4.7650
  33        4.7650
  34        4.7650
  35        5.3011
  36        5.3011
  37        5.3774
  38        5.3774
  39        6.2750
  40        6.2750
  41        6.2750
  42        6.2750
  43        6.4000
  44        6.4000
  45        6.7463
  46        6.7463
  47        6.7463
  48        6.7463
  49        6.9208
  50        7.2473
  51        7.2473
  52        7.2490
  53        7.2490
  54        7.2518
  55        7.2518
  56        7.4075
  57        7.4075
  58        7.4075
  59        7.4075
  60        8.3965
  61        8.3965
  62        8.4043
  63        8.4043
  64        8.4045
  65        8.4045
  66        8.8988
  67        8.8988
  68        8.8988
 
  0.3333333E+00  0.0000000E+00  0.0000000E+00  0.1157407E-02
   1       -3.2786
   2       -2.5814
   3       -1.1962
   4       -1.1962
   5       -1.1962
   6       -1.1962
   7       -0.5082
   8       -0.5082
   9       -0.5082
  10       -0.5082
  11        0.1759
  12        0.8590
  13        0.8590
  14        0.8590
  15        0.8590
  16        1.5380
  17        1.5380
  18        1.5380
  19        1.5380
  20        2.2012
  21        2.2136
  22        2.2136
  23        2.2136
  24        2.2137
  25        4.2110
  26        4.2110
  27        4.2110
  28        4.2110
  29        4.2282
  30        4.2282
  31        4.2282
  32        4.2282
  33        4.4229
  34        4.4229
  35        5.0713
  36        5.0713
  37        5.4776
  38        5.4776
  39        6.1602
  40        6.1603
  41        6.2002
  42        6.2002
  43        6.2002
  44        6.2003
  45        6.3697
  46        6.3697
  47        6.3697
  48        6.3697
  49        7.0190
  50        7.0190
  51        7.0190
  52        7.0190
  53        7.5056
  54        7.5056
  55        7.5056
  56        7.5056
  57        7.6634
  58        7.6701
  59        7.6701
  60        8.1706
  61        8.1706
  62        8.1706
  63        8.1706
  64        8.8122
  65        8.8122
  66        9.6180
  67        9.6204
  68        9.6233
 
  0.4166667E+00  0.0000000E+00  0.0000000E+00  0.1157407E-02
   1       -3.1476
   2       -2.7989
   3       -1.0670
   4       -1.0670
   5       -1.0670
   6       -1.0670
   7       -0.7229
   8       -0.7229
   9       -0.7229
  10       -0.7229
  11        0.6441
  12        0.9865
  13        0.9865
  14        0.9865
  15        0.9865
  16        1.3261
  17        1.3261
  18        1.3261
  19        1.3261
  20        1.6581
  21        2.6758
  22        2.6758
  23        2.6758
  24        2.6758
  25        3.6759
  26        3.6759
  27        3.6759
  28        3.6759
  29        4.5444
  30        4.5444
  31        4.6846
  32        4.6846
  33        4.6846
  34        4.6846
  35        4.8686
  36        4.8686
  37        5.6061
  38        5.6062
  39        5.6722
  40        5.6722
  41        5.6722
  42        5.6722
  43        5.9478
  44        5.9478
  45        6.4914
  46        6.4914
  47        6.4914
  48        6.4914
  49        6.8160
  50        6.8160
  51        6.8160
  52        6.8160
  53        7.6309
  54        7.6309
  55        7.6309
  56        7.6309
  57        7.9636
  58        7.9636
  59        7.9636
  60        7.9637
  61        8.1173
  62        8.1173
  63        8.4365
  64        9.0935
  65        9.0935
  66        9.2478
  67        9.2478
  68       10.0634
 
  0.5000000E+00  0.0000000E+00  0.0000000E+00  0.5787037E-03
   1       -2.9890
   2       -2.9864
   3       -0.9129
   4       -0.9100
   5       -0.9100
   6       -0.9093
   7       -0.9091
   8       -0.9084
   9       -0.9084
  10       -0.9055
  11        1.1356
  12        1.1386
  13        1.1411
  14        1.1411
  15        1.1412
  16        1.1419
  17        1.1426
  18        1.1434
  19        1.1434
  20        1.1460
  21        3.1622
  22        3.1628
  23        3.1628
  24        3.1634
  25        3.1637
  26        3.1643
  27        3.1643
  28        3.1649
  29        4.6916
  30        4.6916
  31        4.6944
  32        4.6944
  33        5.1652
  34        5.1652
  35        5.1659
  36        5.1660
  37        5.1666
  38        5.1667
  39        5.1674
  40        5.1674
  41        5.7613
  42        5.7621
  43        5.7639
  44        5.7647
  45        6.6380
  46        6.6380
  47        6.6390
  48        6.6401
  49        6.6403
  50        6.6414
  51        6.6424
  52        6.6424
  53        7.7815
  54        7.7827
  55        7.7827
  56        7.7828
  57        7.7846
  58        7.7847
  59        7.7847
  60        7.7859
  61        8.5907
  62        8.5907
  63        8.5929
  64        8.5929
  65        9.2358
  66        9.2374
  67        9.6997
  68        9.7010
 
  0.0000000E+00  0.8333333E-01  0.0000000E+00  0.2314815E-02
   1       -3.4971
   2       -1.7574
   3       -1.4145
   4       -1.4118
   5       -1.4118
   6       -1.4091
   7       -1.0670
   8        0.3023
   9        0.3050
  10        0.3050
  11        0.3077
  12        0.6441
  13        0.6452
  14        0.6472
  15        0.6483
  16        0.9839
  17        0.9866
  18        0.9866
  19        0.9893
  20        2.3369
  21        2.3380
  22        2.3400
  23        2.3411
  24        3.0161
  25        3.0171
  26        3.0192
  27        3.0203
  28        3.8910
  29        4.2203
  30        4.2203
  31        5.2626
  32        5.2626
  33        5.5897
  34        5.8418
  35        5.8421
  36        5.8568
  37        5.8596
  38        5.8596
  39        5.8626
  40        6.1643
  41        6.1668
  42        6.1668
  43        6.1693
  44        6.4917
  45        6.4917
  46        6.9569
  47        6.9569
  48        7.2833
  49        7.2855
  50        7.2855
  51        7.2876
  52        7.6137
  53        7.6158
  54        7.6158
  55        7.6179
  56        7.6372
  57        7.6372
  58        7.7876
  59        7.7901
  60        7.7902
  61        7.7928
  62        7.8170
  63        7.8185
  64        7.8205
  65        7.8221
  66        8.4374
  67        8.4399
  68        8.4413
 
  0.8333333E-01  0.8333333E-01  0.0000000E+00  0.4629630E-02
   1       -3.4825
   2       -1.7441
   3       -1.7419
   4       -1.3974
   5       -1.3974
   6       -1.0537
   7       -1.0515
   8       -0.0226
   9        0.3177
  10        0.3186
  11        0.3199
  12        0.3208
  13        0.6598
  14        0.6609
  15        0.9992
  16        1.0001
  17        1.0014
  18        1.0023
  19        1.3405
  20        2.0168
  21        2.0168
  22        2.6492
  23        2.6492
  24        2.7366
  25        2.7366
  26        3.3664
  27        3.3664
  28        3.9043
  29        3.9052
  30        4.2338
  31        5.2770
  32        5.5448
  33        5.5470
  34        5.6034
  35        5.6043
  36        5.8543
  37        5.8567
  38        5.8660
  39        5.8661
  40        5.8806
  41        5.8807
  42        6.1994
  43        6.2007
  44        6.5040
  45        6.5064
  46        6.9735
  47        6.9754
  48        7.2731
  49        7.2745
  50        7.4789
  51        7.5055
  52        7.5065
  53        7.5078
  54        7.5086
  55        7.5565
  56        7.5566
  57        7.6548
  58        7.6562
  59        7.6769
  60        7.6769
  61        7.9491
  62        7.9509
  63        8.1277
  64        8.1296
  65        8.1575
  66        8.1586
  67        8.1588
  68        8.1598
 
  0.1666667E+00  0.8333333E-01  0.0000000E+00  0.4629630E-02
   1       -3.4388
   2       -2.0460
   3       -1.6998
   4       -1.3543
   5       -1.3543
   6       -1.0096
   7       -0.6657
   8       -0.3224
   9        0.0201
  10        0.0202
  11        0.3613
  12        0.3619
  13        0.3625
  14        1.0425
  15        1.0433
  16        1.0438
  17        1.3828
  18        1.3828
  19        1.7209
  20        1.7213
  21        1.7220
  22        2.3953
  23        2.3953
  24        3.0737
  25        3.0737
  26        3.3535
  27        3.7425
  28        3.7425
  29        3.9459
  30        4.2743
  31        5.0112
  32        5.2592
  33        5.3199
  34        5.3411
  35        5.3412
  36        5.5716
  37        5.6462
  38        5.6706
  39        5.8962
  40        5.9144
  41        5.9144
  42        6.2319
  43        6.5458
  44        6.5635
  45        6.6864
  46        6.8708
  47        6.9855
  48        6.9857
  49        6.9897
  50        7.0182
  51        7.1948
  52        7.2217
  53        7.2217
  54        7.6397
  55        7.6399
  56        7.6526
  57        7.6527
  58        7.6689
  59        7.8445
  60        7.9120
  61        8.0185
  62        8.2292
  63        8.2292
  64        8.3162
  65        8.3503
  66        8.4962
  67        8.5246
  68        8.5312
 
  0.2500000E+00  0.8333333E-01  0.0000000E+00  0.4629630E-02
   1       -3.3660
   2       -2.3207
   3       -1.6277
   4       -1.2824
   5       -1.2824
   6       -0.9379
   7       -0.5940
   8       -0.2529
   9       -0.2510
  10       -0.2494
  11        0.0914
  12        0.4330
  13        0.4330
  14        1.1140
  15        1.1140
  16        1.4514
  17        1.4532
  18        1.4549
  19        1.7918
  20        1.7919
  21        2.1279
  22        2.1295
  23        2.1315
  24        2.7787
  25        3.4773
  26        3.4773
  27        4.0144
  28        4.1456
  29        4.1456
  30        4.3418
  31        4.4469
  32        4.7788
  33        4.7788
  34        4.9996
  35        5.1099
  36        5.3146
  37        5.3917
  38        5.7169
  39        5.9638
  40        5.9825
  41        5.9825
  42        6.4136
  43        6.4312
  44        6.4312
  45        6.6134
  46        6.7266
  47        6.9347
  48        6.9376
  49        6.9616
  50        6.9632
  51        6.9658
  52        7.0881
  53        7.0881
  54        7.0887
  55        7.2636
  56        7.5874
  57        7.7245
  58        7.7246
  59        7.7506
  60        8.0892
  61        8.4107
  62        8.5889
  63        8.7069
  64        8.7146
  65        8.7149
  66        8.7445
  67        8.8910
  68        8.9144
 
  0.3333333E+00  0.8333333E-01  0.0000000E+00  0.4629630E-02
   1       -3.2640
   2       -2.5669
   3       -1.5270
   4       -1.1819
   5       -1.1818
   6       -0.8381
   7       -0.8370
   8       -0.4939
   9       -0.4939
  10       -0.1511
  11        0.1901
  12        0.5325
  13        0.5325
  14        1.2123
  15        1.2126
  16        1.2134
  17        1.2137
  18        1.8895
  19        1.8905
  20        1.8908
  21        2.2153
  22        2.2277
  23        2.2277
  24        2.5648
  25        3.8915
  26        3.9082
  27        3.9083
  28        4.1103
  29        4.2249
  30        4.2249
  31        4.4363
  32        4.5575
  33        4.5752
  34        4.5753
  35        4.7672
  36        5.0848
  37        5.4919
  38        5.8157
  39        5.8839
  40        5.8839
  41        6.0584
  42        6.0780
  43        6.0780
  44        6.1744
  45        6.4897
  46        6.5433
  47        6.5433
  48        6.7071
  49        6.7087
  50        6.7319
  51        6.7319
  52        7.1868
  53        7.3574
  54        7.3847
  55        7.6771
  56        7.6836
  57        7.8220
  58        7.8220
  59        7.8494
  60        7.8545
  61        8.4824
  62        8.4824
  63        8.5119
  64        8.8259
  65        9.1211
  66        9.3099
  67        9.3220
  68        9.3353
 
  0.4166667E+00  0.8333333E-01  0.0000000E+00  0.4629630E-02
   1       -3.1331
   2       -2.7844
   3       -1.3975
   4       -1.0539
   5       -1.0526
   6       -1.0514
   7       -0.7099
   8       -0.7086
   9       -0.7073
  10       -0.3653
  11        0.6577
  12        0.6603
  13        0.6609
  14        1.0006
  15        1.0006
  16        1.3403
  17        1.3403
  18        1.6719
  19        1.6792
  20        1.6794
  21        2.3529
  22        2.6898
  23        2.6898
  24        3.0259
  25        3.3552
  26        3.6899
  27        3.6899
  28        4.0238
  29        4.2335
  30        4.3654
  31        4.3654
  32        4.5579
  33        4.5620
  34        4.8821
  35        5.0308
  36        5.0308
  37        5.3548
  38        5.3548
  39        5.6204
  40        5.9425
  41        5.9620
  42        6.0163
  43        6.0164
  44        6.1801
  45        6.2006
  46        6.2006
  47        6.2798
  48        6.5047
  49        6.5276
  50        6.5276
  51        6.8298
  52        7.1545
  53        7.3126
  54        7.6466
  55        7.8321
  56        7.9465
  57        7.9465
  58        7.9745
  59        8.1309
  60        8.2768
  61        8.2768
  62        8.3059
  63        8.4501
  64        8.8045
  65        9.1070
  66        9.2614
  67        9.5557
  68        9.7554
 
  0.5000000E+00  0.8333333E-01  0.0000000E+00  0.2314815E-02
   1       -2.9745
   2       -2.9718
   3       -1.2407
   4       -1.2380
   5       -0.8968
   6       -0.8956
   7       -0.8941
   8       -0.8930
   9       -0.5525
  10       -0.5498
  11        0.8144
  12        0.8156
  13        0.8171
  14        0.8182
  15        1.1519
  16        1.1534
  17        1.4939
  18        1.4950
  19        1.4965
  20        1.4976
  21        2.8410
  22        2.8425
  23        3.1768
  24        3.1768
  25        3.1783
  26        3.1783
  27        3.5119
  28        3.5133
  29        4.3827
  30        4.3855
  31        4.7051
  32        4.7079
  33        4.8473
  34        4.8473
  35        4.8487
  36        4.8488
  37        5.5108
  38        5.5108
  39        5.5122
  40        5.5123
  41        5.7760
  42        5.7785
  43        6.0960
  44        6.0986
  45        6.3275
  46        6.3303
  47        6.3484
  48        6.3499
  49        6.3513
  50        6.3526
  51        6.9772
  52        6.9800
  53        7.4646
  54        7.4672
  55        8.0964
  56        8.0972
  57        8.0990
  58        8.0998
  59        8.1254
  60        8.1280
  61        8.3046
  62        8.3065
  63        8.6042
  64        8.6065
  65        9.2493
  66        9.2509
  67        9.7137
  68        9.7143
 
  0.0000000E+00  0.1666667E+00  0.0000000E+00  0.2314815E-02
   1       -3.4534
   2       -2.0605
   3       -1.3714
   4       -1.3686
   5       -1.3686
   6       -1.3660
   7       -0.6800
   8        0.0032
   9        0.0059
  10        0.0059
  11        0.0086
  12        0.6867
  13        0.6878
  14        0.6898
  15        0.6909
  16        1.3659
  17        1.3686
  18        1.3686
  19        1.3713
  20        2.0429
  21        2.0440
  22        2.0460
  23        2.0471
  24        3.3396
  25        3.3920
  26        3.3931
  27        3.3952
  28        3.3962
  29        4.2608
  30        4.2608
  31        5.3056
  32        5.3057
  33        5.3246
  34        5.3274
  35        5.3274
  36        5.3302
  37        5.5580
  38        5.5581
  39        6.2049
  40        6.2073
  41        6.2074
  42        6.2099
  43        6.2180
  44        6.6663
  45        6.6663
  46        6.8573
  47        6.8573
  48        7.2971
  49        7.2985
  50        7.3005
  51        7.3018
  52        7.3341
  53        7.3361
  54        7.3361
  55        7.3381
  56        7.5035
  57        7.5061
  58        7.5061
  59        7.5086
  60        8.0040
  61        8.0040
  62        8.2115
  63        8.2139
  64        8.2139
  65        8.2163
  66        8.6634
  67        8.6644
  68        8.6660
 
  0.8333333E-01  0.1666667E+00  0.0000000E+00  0.4629630E-02
   1       -3.4388
   2       -2.0460
   3       -1.6998
   4       -1.3543
   5       -1.3543
   6       -1.0096
   7       -0.6657
   8       -0.3224
   9        0.0201
  10        0.0202
  11        0.3605
  12        0.3619
  13        0.3633
  14        1.0418
  15        1.0433
  16        1.0446
  17        1.3828
  18        1.3828
  19        1.7209
  20        1.7213
  21        1.7220
  22        2.3953
  23        2.3953
  24        3.0737
  25        3.0737
  26        3.3535
  27        3.7425
  28        3.7425
  29        3.9459
  30        4.2743
  31        5.0111
  32        5.2591
  33        5.3200
  34        5.3411
  35        5.3411
  36        5.5715
  37        5.6462
  38        5.6705
  39        5.8961
  40        5.9144
  41        5.9145
  42        6.2319
  43        6.5458
  44        6.5635
  45        6.6864
  46        6.8708
  47        6.9856
  48        6.9856
  49        6.9897
  50        7.0182
  51        7.1947
  52        7.2217
  53        7.2217
  54        7.6400
  55        7.6400
  56        7.6524
  57        7.6525
  58        7.6690
  59        7.8445
  60        7.9120
  61        8.0185
  62        8.2291
  63        8.2291
  64        8.3162
  65        8.3503
  66        8.4946
  67        8.5246
  68        8.5490
 
  0.1666667E+00  0.1666667E+00  0.0000000E+00  0.4629630E-02
   1       -3.3951
   2       -2.0038
   3       -2.0016
   4       -1.3112
   5       -1.3112
   6       -0.6245
   7       -0.6227
   8       -0.6210
   9        0.0614
  10        0.0623
  11        0.0635
  12        0.0644
  13        0.7448
  14        0.7459
  15        1.4227
  16        1.4239
  17        1.4250
  18        1.4251
  19        1.4262
  20        1.4275
  21        2.1019
  22        2.7355
  23        2.7355
  24        2.8181
  25        2.8181
  26        3.3946
  27        3.3956
  28        4.1181
  29        4.1181
  30        4.3148
  31        4.7209
  32        4.7231
  33        5.3629
  34        5.3742
  35        5.3743
  36        5.3908
  37        5.3908
  38        5.6109
  39        5.6133
  40        6.0394
  41        6.0405
  42        6.2733
  43        6.2743
  44        6.6971
  45        6.6980
  46        6.6994
  47        6.7002
  48        6.7249
  49        6.7267
  50        6.9089
  51        6.9111
  52        6.9133
  53        7.5975
  54        7.5988
  55        8.0060
  56        8.0071
  57        8.0071
  58        8.0082
  59        8.0616
  60        8.0637
  61        8.0652
  62        8.2088
  63        8.2104
  64        8.2110
  65        8.2118
  66        8.3182
  67        8.3182
  68        8.9157
 
  0.2500000E+00  0.1666667E+00  0.0000000E+00  0.4629630E-02
   1       -3.3223
   2       -2.2773
   3       -1.9305
   4       -1.2393
   5       -1.2393
   6       -0.8949
   7       -0.5513
   8       -0.2101
   9       -0.2081
  10       -0.2066
  11        0.1341
  12        0.1341
  13        0.4755
  14        1.1544
  15        1.1563
  16        1.1579
  17        1.4957
  18        1.4958
  19        1.8341
  20        1.8341
  21        2.5066
  22        2.5078
  23        2.5104
  24        2.8206
  25        3.1848
  26        3.1848
  27        3.4644
  28        4.1560
  29        4.3823
  30        4.4600
  31        4.5205
  32        4.5205
  33        4.8202
  34        4.8202
  35        5.3552
  36        5.4346
  37        5.4513
  38        5.4513
  39        5.4816
  40        5.6797
  41        6.1430
  42        6.1430
  43        6.3436
  44        6.4160
  45        6.4388
  46        6.4389
  47        6.4794
  48        6.6535
  49        6.7958
  50        6.9762
  51        6.9790
  52        7.3042
  53        7.3411
  54        7.4565
  55        7.4566
  56        7.7997
  57        7.9530
  58        8.1055
  59        8.3176
  60        8.3287
  61        8.3287
  62        8.4006
  63        8.4006
  64        8.4529
  65        8.6027
  66        8.9552
  67        8.9552
  68        9.1088
 
  0.3333333E+00  0.1666667E+00  0.0000000E+00  0.4629630E-02
   1       -3.2204
   2       -2.5234
   3       -1.8296
   4       -1.1401
   5       -1.1388
   6       -1.1375
   7       -0.4524
   8       -0.4510
   9       -0.4498
  10        0.2313
  11        0.2336
  12        0.2338
  13        0.2353
  14        0.9155
  15        0.9155
  16        1.5933
  17        1.5946
  18        1.5949
  19        2.2572
  20        2.2684
  21        2.2691
  22        2.2709
  23        2.2717
  24        2.9431
  25        3.5613
  26        3.5994
  27        3.6157
  28        3.6158
  29        4.2253
  30        4.2665
  31        4.2666
  32        4.4769
  33        4.9309
  34        4.9492
  35        4.9492
  36        5.1254
  37        5.5347
  38        5.5474
  39        5.5474
  40        5.5947
  41        5.5948
  42        5.7743
  43        6.2060
  44        6.2060
  45        6.2163
  46        6.4235
  47        6.4412
  48        6.8623
  49        6.8940
  50        6.9129
  51        6.9129
  52        7.0737
  53        7.1073
  54        7.5641
  55        7.7184
  56        7.7220
  57        7.7253
  58        8.2166
  59        8.4267
  60        8.4267
  61        8.8041
  62        8.8199
  63        8.8200
  64        8.8671
  65        8.8775
  66        9.0230
  67        9.0352
  68        9.0821
 
  0.4166667E+00  0.1666667E+00  0.0000000E+00  0.4629630E-02
   1       -3.0895
   2       -2.7409
   3       -1.6998
   4       -1.3544
   5       -1.0096
   6       -1.0096
   7       -0.6657
   8       -0.6657
   9       -0.3226
  10        0.0199
  11        0.3618
  12        0.3618
  13        0.7001
  14        0.7028
  15        0.7035
  16        1.7142
  17        1.7215
  18        1.7218
  19        2.0575
  20        2.0595
  21        2.0596
  22        2.7318
  23        2.7319
  24        3.0619
  25        3.4031
  26        3.6860
  27        3.7317
  28        3.7317
  29        4.0180
  30        4.0735
  31        4.0736
  32        4.3985
  33        4.5984
  34        4.9226
  35        5.0646
  36        5.0646
  37        5.4038
  38        5.4038
  39        5.6632
  40        5.6710
  41        5.6711
  42        5.8960
  43        6.0004
  44        6.0004
  45        6.0044
  46        6.2206
  47        6.3872
  48        6.3872
  49        6.5666
  50        6.8999
  51        7.0201
  52        7.1954
  53        7.3104
  54        7.3554
  55        7.5201
  56        8.1714
  57        8.2828
  58        8.3423
  59        8.4911
  60        8.5504
  61        8.5504
  62        8.6724
  63        8.8782
  64        8.8782
  65        9.1475
  66        9.2649
  67        9.2649
  68        9.3022
 
  0.5000000E+00  0.1666667E+00  0.0000000E+00  0.2314815E-02
   1       -2.9309
   2       -2.9283
   3       -1.5427
   4       -1.5401
   5       -0.8538
   6       -0.8526
   7       -0.8511
   8       -0.8500
   9       -0.1668
  10       -0.1642
  11        0.5163
  12        0.5174
  13        0.5189
  14        0.5200
  15        1.1943
  16        1.1958
  17        1.8746
  18        1.8757
  19        1.8773
  20        1.8784
  21        2.5466
  22        2.5481
  23        3.2187
  24        3.2187
  25        3.2202
  26        3.2202
  27        3.8369
  28        3.8396
  29        3.8879
  30        3.8894
  31        4.5561
  32        4.5562
  33        4.5576
  34        4.5576
  35        4.7456
  36        4.7484
  37        5.8185
  38        5.8201
  39        5.8211
  40        5.8213
  41        5.8228
  42        5.8241
  43        5.8827
  44        5.8828
  45        5.8842
  46        5.8842
  47        6.0434
  48        6.0462
  49        6.7182
  50        6.7209
  51        7.1727
  52        7.1753
  53        7.3428
  54        7.3457
  55        7.7835
  56        7.7852
  57        8.4928
  58        8.4953
  59        8.6447
  60        8.6470
  61        8.6991
  62        8.7000
  63        8.7018
  64        8.7027
  65        9.2900
  66        9.2916
  67        9.7360
  68        9.7373
 
  0.0000000E+00  0.2500000E+00  0.0000000E+00  0.2314815E-02
   1       -3.3805
   2       -2.3352
   3       -1.2995
   4       -1.2968
   5       -1.2968
   6       -1.2941
   7       -0.2681
   8       -0.2656
   9       -0.2652
  10       -0.2652
  11       -0.2624
  12        0.7576
  13        0.7587
  14        0.7607
  15        0.7619
  16        1.7744
  17        1.7762
  18        1.7765
  19        1.7777
  20        1.7777
  21        1.7789
  22        1.7793
  23        1.7811
  24        2.7647
  25        3.7957
  26        3.7968
  27        3.7988
  28        3.7999
  29        4.3283
  30        4.3283
  31        4.7622
  32        4.7649
  33        4.7650
  34        4.7677
  35        5.3011
  36        5.3011
  37        5.3773
  38        5.3774
  39        6.2725
  40        6.2750
  41        6.2750
  42        6.2775
  43        6.4000
  44        6.4000
  45        6.7440
  46        6.7452
  47        6.7473
  48        6.7486
  49        6.9208
  50        7.2461
  51        7.2490
  52        7.2490
  53        7.2498
  54        7.2501
  55        7.2521
  56        7.4055
  57        7.4075
  58        7.4075
  59        7.4095
  60        8.3966
  61        8.3968
  62        8.4024
  63        8.4043
  64        8.4043
  65        8.4063
  66        8.8976
  67        8.8988
  68        8.8990
 