 vasp.4.6.28 25Jul05 complex 
 executed on             LinuxIFC date 2016.10.21  16:40:00
 running on    4 nodes
 distr:  one band on    1 nodes,    4 groups


--------------------------------------------------------------------------------------------------------


 INCAR:
 POTCAR:   PAW_PBE Al 04Jan2001                   
 POTCAR:   PAW_PBE Al 04Jan2001                   
   VRHFIN =Al: s2p1                                                             
   LEXCH  = PE                                                                  
   EATOM  =    53.5387 eV,    3.9350 Ry                                         
                                                                                
   TITEL  = PAW_PBE Al 04Jan2001                                                
   LULTRA =        F    use ultrasoft PP ?                                      
   IUNSCR =        1    unscreen: 0-lin 1-nonlin 2-no                           
   RPACOR =    1.500    partial core radius                                     
   POMASS =   26.982; ZVAL   =    3.000    mass and valenz                      
   RCORE  =    1.900    outmost cutoff radius                                   
   RWIGS  =    2.650; RWIGS  =    1.402    wigner-seitz radius (au A)           
   ENMAX  =  240.300; ENMIN  =  180.225 eV                                      
   ICORE  =        2    local potential                                         
   LCOR   =        T    correct aug charges                                     
   LPAW   =        T    paw PP                                                  
   EAUG   =  291.052                                                            
   DEXC   =    -.041                                                            
   RMAX   =    2.974    core radius for proj-oper                               
   RAUG   =    1.300    factor for augmentation sphere                          
   RDEP   =    1.966    radius for radial grids                                 
   QCUT   =   -4.203; QGAM   =    8.405    optimization parameters              
                                                                                
   Description                                                                  
     l     E      TYP  RCUT    TYP  RCUT                                        
     0   .000     23  1.900                                                     
     0   .000     23  1.900                                                     
     1   .000     23  1.900                                                     
     1  1.000     23  1.900                                                     
     2   .000      7  1.900                                                     
  local pseudopotential read in
  partial core-charges read in
  atomic valenz-charges read in
  non local Contribution for L=           0  read in
    real space projection operators read in
  non local Contribution for L=           0  read in
    real space projection operators read in
  non local Contribution for L=           1  read in
    real space projection operators read in
  non local Contribution for L=           1  read in
    real space projection operators read in
    PAW grid and wavefunctions read in
 
   number of l-projection  operators is LMAX  =           4
   number of lm-projection operators is LMMAX =           8
 

 ----------------------------------------------------------------------------- 
|                                                                             |
|  ADVICE TO THIS USER RUNNING 'VASP/VAMP'   (HEAR YOUR MASTER'S VOICE ...):  |
|                                                                             |
|      You have a (more or less) 'large supercell' and for larger cells       |
|      it might be more efficient to use real space projection operators      |
|      So try LREAL= Auto  in the INCAR   file.                               |
|      Mind: If you want to do an extremely accurate calculations keep the    |
|      reciprocal projection scheme          (i.e. LREAL=.FALSE.)             |
|                                                                             |
 ----------------------------------------------------------------------------- 

 PAW_PBE Al 04Jan2001                   :
 energy of atom  1       EATOM=  -53.5387
 kinetic energy error for atom=    0.0003 (will be added to EATOM!!)
 
 EXHCAR: internal setup
 exchange correlation table for  LEXCH =        8
   RHO(1)=    0.500       N(1)  =     2000
   RHO(2)=  100.500       N(2)  =     4000
 
 POSCAR: Al                                      
  positions in direct lattice
  No initial velocities read in
 


--------------------------------------------------------------------------------------------------------


 ion  position               nearest neighbor table
   1  0.251  0.250  0.000-  18 2.96  22 2.96  26 2.96  28 2.96   9 2.97  11 2.97  13 2.97  15 2.97
                            25 2.98  21 2.98  27 2.98  17 2.98
   2  0.750  0.250  0.000-  10 2.97  12 2.97  14 2.97  16 2.97  17 2.97  18 2.97  21 2.97  22 2.97
                            25 2.97  26 2.97  27 2.97  28 2.97
   3  0.250  0.750  0.000-   9 2.97  11 2.97  13 2.97  15 2.97  19 2.97  20 2.97  23 2.97  24 2.97
                            25 2.97  26 2.97  27 2.97  28 2.97
   4  0.750  0.750  0.000-  10 2.97  12 2.97  14 2.97  16 2.97  19 2.97  20 2.97  23 2.97  24 2.97
                            25 2.97  26 2.97  27 2.97  28 2.97
   5  0.250  0.250  0.500-   9 2.97  11 2.97  13 2.97  15 2.97  17 2.97  18 2.97  21 2.97  22 2.97
                            29 2.97  30 2.97  31 2.97  32 2.97
   6  0.750  0.250  0.500-  10 2.97  12 2.97  14 2.97  16 2.97  17 2.97  18 2.97  21 2.97  22 2.97
                            29 2.97  30 2.97  31 2.97  32 2.97
   7  0.250  0.750  0.500-   9 2.97  11 2.97  13 2.97  15 2.97  19 2.97  20 2.97  23 2.97  24 2.97
                            29 2.97  30 2.97  31 2.97  32 2.97
   8  0.750  0.750  0.500-  10 2.97  12 2.97  14 2.97  16 2.97  19 2.97  20 2.97  23 2.97  24 2.97
                            29 2.97  30 2.97  31 2.97  32 2.97
   9  0.250  0.000  0.250-   3 2.97   5 2.97   7 2.97  17 2.97  18 2.97  19 2.97  20 2.97  25 2.97
                            26 2.97  29 2.97  30 2.97   1 2.97
  10  0.750  0.000  0.250-   2 2.97   4 2.97   6 2.97   8 2.97  17 2.97  18 2.97  19 2.97  20 2.97
                            25 2.97  26 2.97  29 2.97  30 2.97
  11  0.250  0.500  0.250-   3 2.97   5 2.97   7 2.97  17 2.97  18 2.97  19 2.97  20 2.97  27 2.97
                            28 2.97  31 2.97  32 2.97   1 2.97
  12  0.750  0.500  0.250-   2 2.97   4 2.97   6 2.97   8 2.97  17 2.97  18 2.97  19 2.97  20 2.97
                            27 2.97  28 2.97  31 2.97  32 2.97
  13  0.250  0.000  0.750-   3 2.97   5 2.97   7 2.97  21 2.97  22 2.97  23 2.97  24 2.97  25 2.97
                            26 2.97  29 2.97  30 2.97   1 2.97
  14  0.750  0.000  0.750-   2 2.97   4 2.97   6 2.97   8 2.97  21 2.97  22 2.97  23 2.97  24 2.97
                            25 2.97  26 2.97  29 2.97  30 2.97
  15  0.250  0.500  0.750-   3 2.97   5 2.97   7 2.97  21 2.97  22 2.97  23 2.97  24 2.97  27 2.97
                            28 2.97  31 2.97  32 2.97   1 2.97
  16  0.750  0.500  0.750-   2 2.97   4 2.97   6 2.97   8 2.97  21 2.97  22 2.97  23 2.97  24 2.97
                            27 2.97  28 2.97  31 2.97  32 2.97
  17  0.000  0.250  0.250-   2 2.97   5 2.97   6 2.97   9 2.97  10 2.97  11 2.97  12 2.97  25 2.97
                            27 2.97  29 2.97  31 2.97   1 2.98
  18  0.500  0.250  0.250-   1 2.96   2 2.97   5 2.97   6 2.97   9 2.97  10 2.97  11 2.97  12 2.97
                            26 2.97  28 2.97  30 2.97  32 2.97
  19  0.000  0.750  0.250-   3 2.97   4 2.97   7 2.97   8 2.97   9 2.97  10 2.97  11 2.97  12 2.97
                            25 2.97  27 2.97  29 2.97  31 2.97
  20  0.500  0.750  0.250-   3 2.97   4 2.97   7 2.97   8 2.97   9 2.97  10 2.97  11 2.97  12 2.97
                            26 2.97  28 2.97  30 2.97  32 2.97
  21  0.000  0.250  0.750-   2 2.97   5 2.97   6 2.97  13 2.97  14 2.97  15 2.97  16 2.97  25 2.97
                            27 2.97  29 2.97  31 2.97   1 2.98
  22  0.500  0.250  0.750-   1 2.96   2 2.97   5 2.97   6 2.97  13 2.97  14 2.97  15 2.97  16 2.97
                            26 2.97  28 2.97  30 2.97  32 2.97
  23  0.000  0.750  0.750-   3 2.97   4 2.97   7 2.97   8 2.97  13 2.97  14 2.97  15 2.97  16 2.97
                            25 2.97  27 2.97  29 2.97  31 2.97
  24  0.500  0.750  0.750-   3 2.97   4 2.97   7 2.97   8 2.97  13 2.97  14 2.97  15 2.97  16 2.97
                            26 2.97  28 2.97  30 2.97  32 2.97
  25  0.000  0.000  0.000-   2 2.97   3 2.97   4 2.97   9 2.97  10 2.97  13 2.97  14 2.97  17 2.97
                            19 2.97  21 2.97  23 2.97   1 2.98
  26  0.500  0.000  0.000-   1 2.96   2 2.97   3 2.97   4 2.97   9 2.97  10 2.97  13 2.97  14 2.97
                            18 2.97  20 2.97  22 2.97  24 2.97
  27  0.000  0.500  0.000-   2 2.97   3 2.97   4 2.97  11 2.97  12 2.97  15 2.97  16 2.97  17 2.97
                            19 2.97  21 2.97  23 2.97   1 2.98
  28  0.500  0.500  0.000-   1 2.96   2 2.97   3 2.97   4 2.97  11 2.97  12 2.97  15 2.97  16 2.97
                            18 2.97  20 2.97  22 2.97  24 2.97
  29  0.000  0.000  0.500-   5 2.97   6 2.97   7 2.97   8 2.97   9 2.97  10 2.97  13 2.97  14 2.97
                            17 2.97  19 2.97  21 2.97  23 2.97
  30  0.500  0.000  0.500-   5 2.97   6 2.97   7 2.97   8 2.97   9 2.97  10 2.97  13 2.97  14 2.97
                            18 2.97  20 2.97  22 2.97  24 2.97
  31  0.000  0.500  0.500-   5 2.97   6 2.97   7 2.97   8 2.97  11 2.97  12 2.97  15 2.97  16 2.97
                            17 2.97  19 2.97  21 2.97  23 2.97
  32  0.500  0.500  0.500-   5 2.97   6 2.97   7 2.97   8 2.97  11 2.97  12 2.97  15 2.97  16 2.97
                            18 2.97  20 2.97  22 2.97  24 2.97
 
  LATTYP: Found a simple cubic cell.
 ALAT       =     8.3975972489
  
  Lattice vectors:
  
 A1 = (   8.3975972489,   0.0000000000,   0.0000000000)
 A2 = (   0.0000000000,   8.3975972489,   0.0000000000)
 A3 = (   0.0000000000,   0.0000000000,   8.3975972489)
 Subroutine PRICEL returns:
 Original cell was already a primitive cell.
 

Analysis of symmetry for initial positions (statically):

 Routine SETGRP: Setting up the symmetry group for a 
 simple cubic supercell.


 Subroutine GETGRP returns: Found  8 space group operations
 (whereof  2 operations were pure point group operations)
 out of a pool of 48 trial point group operations.


The static configuration has the point symmetry C_1h.
 The point group associated with its full space group is C_4v.

Analysis of symmetry for dynamics (positions and initial velocities):

 Subroutine DYNSYM returns: Found  8 space group operations
 (whereof  2 operations were pure point group operations)
 out of a pool of  8 trial space group operations
 (whereof  2 operations were pure point group operations)
 and found also     1 'primitive' translations


The dynamic configuration has the point symmetry C_1h.
 The point group associated with its full space group is C_4v.
 
 
 KPOINTS: Automatic mesh                          

Automatic generation of k-mesh.
 
 Subroutine IBZKPT returns following result:
 ===========================================
 
 Found    196 irreducible k-points:
 
 Following reciprocal coordinates:
            Coordinates               Weight
  0.000000  0.000000  0.000000      1.000000
  0.083333  0.000000  0.000000      2.000000
  0.166667  0.000000  0.000000      2.000000
  0.250000  0.000000  0.000000      2.000000
  0.333333  0.000000  0.000000      2.000000
  0.416667  0.000000  0.000000      2.000000
  0.500000  0.000000  0.000000      1.000000
  0.000000  0.083333  0.000000      4.000000
  0.083333  0.083333  0.000000      8.000000
  0.166667  0.083333  0.000000      8.000000
  0.250000  0.083333  0.000000      8.000000
  0.333333  0.083333  0.000000      8.000000
  0.416667  0.083333  0.000000      8.000000
  0.500000  0.083333  0.000000      4.000000
  0.000000  0.166667  0.000000      4.000000
  0.083333  0.166667  0.000000      8.000000
  0.166667  0.166667  0.000000      8.000000
  0.250000  0.166667  0.000000      8.000000
  0.333333  0.166667  0.000000      8.000000
  0.416667  0.166667  0.000000      8.000000
  0.500000  0.166667  0.000000      4.000000
  0.000000  0.250000  0.000000      4.000000
  0.083333  0.250000  0.000000      8.000000
  0.166667  0.250000  0.000000      8.000000
  0.250000  0.250000  0.000000      8.000000
  0.333333  0.250000  0.000000      8.000000
  0.416667  0.250000  0.000000      8.000000
  0.500000  0.250000  0.000000      4.000000
  0.000000  0.333333  0.000000      4.000000
  0.083333  0.333333  0.000000      8.000000
  0.166667  0.333333  0.000000      8.000000
  0.250000  0.333333  0.000000      8.000000
  0.333333  0.333333  0.000000      8.000000
  0.416667  0.333333  0.000000      8.000000
  0.500000  0.333333  0.000000      4.000000
  0.000000  0.416667  0.000000      4.000000
  0.083333  0.416667  0.000000      8.000000
  0.166667  0.416667  0.000000      8.000000
  0.250000  0.416667  0.000000      8.000000
  0.333333  0.416667  0.000000      8.000000
  0.416667  0.416667  0.000000      8.000000
  0.500000  0.416667  0.000000      4.000000
  0.000000  0.500000  0.000000      2.000000
  0.083333  0.500000  0.000000      4.000000
  0.166667  0.500000  0.000000      4.000000
  0.250000  0.500000  0.000000      4.000000
  0.333333  0.500000  0.000000      4.000000
  0.416667  0.500000  0.000000      4.000000
  0.500000  0.500000  0.000000      2.000000
  0.000000  0.083333  0.083333      4.000000
  0.083333  0.083333  0.083333      8.000000
  0.166667  0.083333  0.083333      8.000000
  0.250000  0.083333  0.083333      8.000000
  0.333333  0.083333  0.083333      8.000000
  0.416667  0.083333  0.083333      8.000000
  0.500000  0.083333  0.083333      4.000000
  0.000000  0.166667  0.083333      8.000000
  0.083333  0.166667  0.083333     16.000000
  0.166667  0.166667  0.083333     16.000000
  0.250000  0.166667  0.083333     16.000000
  0.333333  0.166667  0.083333     16.000000
  0.416667  0.166667  0.083333     16.000000
  0.500000  0.166667  0.083333      8.000000
  0.000000  0.250000  0.083333      8.000000
  0.083333  0.250000  0.083333     16.000000
  0.166667  0.250000  0.083333     16.000000
  0.250000  0.250000  0.083333     16.000000
  0.333333  0.250000  0.083333     16.000000
  0.416667  0.250000  0.083333     16.000000
  0.500000  0.250000  0.083333      8.000000
  0.000000  0.333333  0.083333      8.000000
  0.083333  0.333333  0.083333     16.000000
  0.166667  0.333333  0.083333     16.000000
  0.250000  0.333333  0.083333     16.000000
  0.333333  0.333333  0.083333     16.000000
  0.416667  0.333333  0.083333     16.000000
  0.500000  0.333333  0.083333      8.000000
  0.000000  0.416667  0.083333      8.000000
  0.083333  0.416667  0.083333     16.000000
  0.166667  0.416667  0.083333     16.000000
  0.250000  0.416667  0.083333     16.000000
  0.333333  0.416667  0.083333     16.000000
  0.416667  0.416667  0.083333     16.000000
  0.500000  0.416667  0.083333      8.000000
  0.000000  0.500000  0.083333      4.000000
  0.083333  0.500000  0.083333      8.000000
  0.166667  0.500000  0.083333      8.000000
  0.250000  0.500000  0.083333      8.000000
  0.333333  0.500000  0.083333      8.000000
  0.416667  0.500000  0.083333      8.000000
  0.500000  0.500000  0.083333      4.000000
  0.000000  0.166667  0.166667      4.000000
  0.083333  0.166667  0.166667      8.000000
  0.166667  0.166667  0.166667      8.000000
  0.250000  0.166667  0.166667      8.000000
  0.333333  0.166667  0.166667      8.000000
  0.416667  0.166667  0.166667      8.000000
  0.500000  0.166667  0.166667      4.000000
  0.000000  0.250000  0.166667      8.000000
  0.083333  0.250000  0.166667     16.000000
  0.166667  0.250000  0.166667     16.000000
  0.250000  0.250000  0.166667     16.000000
  0.333333  0.250000  0.166667     16.000000
  0.416667  0.250000  0.166667     16.000000
  0.500000  0.250000  0.166667      8.000000
  0.000000  0.333333  0.166667      8.000000
  0.083333  0.333333  0.166667     16.000000
  0.166667  0.333333  0.166667     16.000000
  0.250000  0.333333  0.166667     16.000000
  0.333333  0.333333  0.166667     16.000000
  0.416667  0.333333  0.166667     16.000000
  0.500000  0.333333  0.166667      8.000000
  0.000000  0.416667  0.166667      8.000000
  0.083333  0.416667  0.166667     16.000000
  0.166667  0.416667  0.166667     16.000000
  0.250000  0.416667  0.166667     16.000000
  0.333333  0.416667  0.166667     16.000000
  0.416667  0.416667  0.166667     16.000000
  0.500000  0.416667  0.166667      8.000000
  0.000000  0.500000  0.166667      4.000000
  0.083333  0.500000  0.166667      8.000000
  0.166667  0.500000  0.166667      8.000000
  0.250000  0.500000  0.166667      8.000000
  0.333333  0.500000  0.166667      8.000000
  0.416667  0.500000  0.166667      8.000000
  0.500000  0.500000  0.166667      4.000000
  0.000000  0.250000  0.250000      4.000000
  0.083333  0.250000  0.250000      8.000000
  0.166667  0.250000  0.250000      8.000000
  0.250000  0.250000  0.250000      8.000000
  0.333333  0.250000  0.250000      8.000000
  0.416667  0.250000  0.250000      8.000000
  0.500000  0.250000  0.250000      4.000000
  0.000000  0.333333  0.250000      8.000000
  0.083333  0.333333  0.250000     16.000000
  0.166667  0.333333  0.250000     16.000000
  0.250000  0.333333  0.250000     16.000000
  0.333333  0.333333  0.250000     16.000000
  0.416667  0.333333  0.250000     16.000000
  0.500000  0.333333  0.250000      8.000000
  0.000000  0.416667  0.250000      8.000000
  0.083333  0.416667  0.250000     16.000000
  0.166667  0.416667  0.250000     16.000000
  0.250000  0.416667  0.250000     16.000000
  0.333333  0.416667  0.250000     16.000000
  0.416667  0.416667  0.250000     16.000000
  0.500000  0.416667  0.250000      8.000000
  0.000000  0.500000  0.250000      4.000000
  0.083333  0.500000  0.250000      8.000000
  0.166667  0.500000  0.250000      8.000000
  0.250000  0.500000  0.250000      8.000000
  0.333333  0.500000  0.250000      8.000000
  0.416667  0.500000  0.250000      8.000000
  0.500000  0.500000  0.250000      4.000000
  0.000000  0.333333  0.333333      4.000000
  0.083333  0.333333  0.333333      8.000000
  0.166667  0.333333  0.333333      8.000000
  0.250000  0.333333  0.333333      8.000000
  0.333333  0.333333  0.333333      8.000000
  0.416667  0.333333  0.333333      8.000000
  0.500000  0.333333  0.333333      4.000000
  0.000000  0.416667  0.333333      8.000000
  0.083333  0.416667  0.333333     16.000000
  0.166667  0.416667  0.333333     16.000000
  0.250000  0.416667  0.333333     16.000000
  0.333333  0.416667  0.333333     16.000000
  0.416667  0.416667  0.333333     16.000000
  0.500000  0.416667  0.333333      8.000000
  0.000000  0.500000  0.333333      4.000000
  0.083333  0.500000  0.333333      8.000000
  0.166667  0.500000  0.333333      8.000000
  0.250000  0.500000  0.333333      8.000000
  0.333333  0.500000  0.333333      8.000000
  0.416667  0.500000  0.333333      8.000000
  0.500000  0.500000  0.333333      4.000000
  0.000000  0.416667  0.416667      4.000000
  0.083333  0.416667  0.416667      8.000000
  0.166667  0.416667  0.416667      8.000000
  0.250000  0.416667  0.416667      8.000000
  0.333333  0.416667  0.416667      8.000000
  0.416667  0.416667  0.416667      8.000000
  0.500000  0.416667  0.416667      4.000000
  0.000000  0.500000  0.416667      4.000000
  0.083333  0.500000  0.416667      8.000000
  0.166667  0.500000  0.416667      8.000000
  0.250000  0.500000  0.416667      8.000000
  0.333333  0.500000  0.416667      8.000000
  0.416667  0.500000  0.416667      8.000000
  0.500000  0.500000  0.416667      4.000000
  0.000000  0.500000  0.500000      1.000000
  0.083333  0.500000  0.500000      2.000000
  0.166667  0.500000  0.500000      2.000000
  0.250000  0.500000  0.500000      2.000000
  0.333333  0.500000  0.500000      2.000000
  0.416667  0.500000  0.500000      2.000000
  0.500000  0.500000  0.500000      1.000000
 
 Following cartesian coordinates:
            Coordinates               Weight
  0.000000  0.000000  0.000000      1.000000
  0.009923  0.000000  0.000000      2.000000
  0.019847  0.000000  0.000000      2.000000
  0.029770  0.000000  0.000000      2.000000
  0.039694  0.000000  0.000000      2.000000
  0.049617  0.000000  0.000000      2.000000
  0.059541  0.000000  0.000000      1.000000
  0.000000  0.009923  0.000000      4.000000
  0.009923  0.009923  0.000000      8.000000
  0.019847  0.009923  0.000000      8.000000
  0.029770  0.009923  0.000000      8.000000
  0.039694  0.009923  0.000000      8.000000
  0.049617  0.009923  0.000000      8.000000
  0.059541  0.009923  0.000000      4.000000
  0.000000  0.019847  0.000000      4.000000
  0.009923  0.019847  0.000000      8.000000
  0.019847  0.019847  0.000000      8.000000
  0.029770  0.019847  0.000000      8.000000
  0.039694  0.019847  0.000000      8.000000
  0.049617  0.019847  0.000000      8.000000
  0.059541  0.019847  0.000000      4.000000
  0.000000  0.029770  0.000000      4.000000
  0.009923  0.029770  0.000000      8.000000
  0.019847  0.029770  0.000000      8.000000
  0.029770  0.029770  0.000000      8.000000
  0.039694  0.029770  0.000000      8.000000
  0.049617  0.029770  0.000000      8.000000
  0.059541  0.029770  0.000000      4.000000
  0.000000  0.039694  0.000000      4.000000
  0.009923  0.039694  0.000000      8.000000
  0.019847  0.039694  0.000000      8.000000
  0.029770  0.039694  0.000000      8.000000
  0.039694  0.039694  0.000000      8.000000
  0.049617  0.039694  0.000000      8.000000
  0.059541  0.039694  0.000000      4.000000
  0.000000  0.049617  0.000000      4.000000
  0.009923  0.049617  0.000000      8.000000
  0.019847  0.049617  0.000000      8.000000
  0.029770  0.049617  0.000000      8.000000
  0.039694  0.049617  0.000000      8.000000
  0.049617  0.049617  0.000000      8.000000
  0.059541  0.049617  0.000000      4.000000
  0.000000  0.059541  0.000000      2.000000
  0.009923  0.059541  0.000000      4.000000
  0.019847  0.059541  0.000000      4.000000
  0.029770  0.059541  0.000000      4.000000
  0.039694  0.059541  0.000000      4.000000
  0.049617  0.059541  0.000000      4.000000
  0.059541  0.059541  0.000000      2.000000
  0.000000  0.009923  0.009923      4.000000
  0.009923  0.009923  0.009923      8.000000
  0.019847  0.009923  0.009923      8.000000
  0.029770  0.009923  0.009923      8.000000
  0.039694  0.009923  0.009923      8.000000
  0.049617  0.009923  0.009923      8.000000
  0.059541  0.009923  0.009923      4.000000
  0.000000  0.019847  0.009923      8.000000
  0.009923  0.019847  0.009923     16.000000
  0.019847  0.019847  0.009923     16.000000
  0.029770  0.019847  0.009923     16.000000
  0.039694  0.019847  0.009923     16.000000
  0.049617  0.019847  0.009923     16.000000
  0.059541  0.019847  0.009923      8.000000
  0.000000  0.029770  0.009923      8.000000
  0.009923  0.029770  0.009923     16.000000
  0.019847  0.029770  0.009923     16.000000
  0.029770  0.029770  0.009923     16.000000
  0.039694  0.029770  0.009923     16.000000
  0.049617  0.029770  0.009923     16.000000
  0.059541  0.029770  0.009923      8.000000
  0.000000  0.039694  0.009923      8.000000
  0.009923  0.039694  0.009923     16.000000
  0.019847  0.039694  0.009923     16.000000
  0.029770  0.039694  0.009923     16.000000
  0.039694  0.039694  0.009923     16.000000
  0.049617  0.039694  0.009923     16.000000
  0.059541  0.039694  0.009923      8.000000
  0.000000  0.049617  0.009923      8.000000
  0.009923  0.049617  0.009923     16.000000
  0.019847  0.049617  0.009923     16.000000
  0.029770  0.049617  0.009923     16.000000
  0.039694  0.049617  0.009923     16.000000
  0.049617  0.049617  0.009923     16.000000
  0.059541  0.049617  0.009923      8.000000
  0.000000  0.059541  0.009923      4.000000
  0.009923  0.059541  0.009923      8.000000
  0.019847  0.059541  0.009923      8.000000
  0.029770  0.059541  0.009923      8.000000
  0.039694  0.059541  0.009923      8.000000
  0.049617  0.059541  0.009923      8.000000
  0.059541  0.059541  0.009923      4.000000
  0.000000  0.019847  0.019847      4.000000
  0.009923  0.019847  0.019847      8.000000
  0.019847  0.019847  0.019847      8.000000
  0.029770  0.019847  0.019847      8.000000
  0.039694  0.019847  0.019847      8.000000
  0.049617  0.019847  0.019847      8.000000
  0.059541  0.019847  0.019847      4.000000
  0.000000  0.029770  0.019847      8.000000
  0.009923  0.029770  0.019847     16.000000
  0.019847  0.029770  0.019847     16.000000
  0.029770  0.029770  0.019847     16.000000
  0.039694  0.029770  0.019847     16.000000
  0.049617  0.029770  0.019847     16.000000
  0.059541  0.029770  0.019847      8.000000
  0.000000  0.039694  0.019847      8.000000
  0.009923  0.039694  0.019847     16.000000
  0.019847  0.039694  0.019847     16.000000
  0.029770  0.039694  0.019847     16.000000
  0.039694  0.039694  0.019847     16.000000
  0.049617  0.039694  0.019847     16.000000
  0.059541  0.039694  0.019847      8.000000
  0.000000  0.049617  0.019847      8.000000
  0.009923  0.049617  0.019847     16.000000
  0.019847  0.049617  0.019847     16.000000
  0.029770  0.049617  0.019847     16.000000
  0.039694  0.049617  0.019847     16.000000
  0.049617  0.049617  0.019847     16.000000
  0.059541  0.049617  0.019847      8.000000
  0.000000  0.059541  0.019847      4.000000
  0.009923  0.059541  0.019847      8.000000
  0.019847  0.059541  0.019847      8.000000
  0.029770  0.059541  0.019847      8.000000
  0.039694  0.059541  0.019847      8.000000
  0.049617  0.059541  0.019847      8.000000
  0.059541  0.059541  0.019847      4.000000
  0.000000  0.029770  0.029770      4.000000
  0.009923  0.029770  0.029770      8.000000
  0.019847  0.029770  0.029770      8.000000
  0.029770  0.029770  0.029770      8.000000
  0.039694  0.029770  0.029770      8.000000
  0.049617  0.029770  0.029770      8.000000
  0.059541  0.029770  0.029770      4.000000
  0.000000  0.039694  0.029770      8.000000
  0.009923  0.039694  0.029770     16.000000
  0.019847  0.039694  0.029770     16.000000
  0.029770  0.039694  0.029770     16.000000
  0.039694  0.039694  0.029770     16.000000
  0.049617  0.039694  0.029770     16.000000
  0.059541  0.039694  0.029770      8.000000
  0.000000  0.049617  0.029770      8.000000
  0.009923  0.049617  0.029770     16.000000
  0.019847  0.049617  0.029770     16.000000
  0.029770  0.049617  0.029770     16.000000
  0.039694  0.049617  0.029770     16.000000
  0.049617  0.049617  0.029770     16.000000
  0.059541  0.049617  0.029770      8.000000
  0.000000  0.059541  0.029770      4.000000
  0.009923  0.059541  0.029770      8.000000
  0.019847  0.059541  0.029770      8.000000
  0.029770  0.059541  0.029770      8.000000
  0.039694  0.059541  0.029770      8.000000
  0.049617  0.059541  0.029770      8.000000
  0.059541  0.059541  0.029770      4.000000
  0.000000  0.039694  0.039694      4.000000
  0.009923  0.039694  0.039694      8.000000
  0.019847  0.039694  0.039694      8.000000
  0.029770  0.039694  0.039694      8.000000
  0.039694  0.039694  0.039694      8.000000
  0.049617  0.039694  0.039694      8.000000
  0.059541  0.039694  0.039694      4.000000
  0.000000  0.049617  0.039694      8.000000
  0.009923  0.049617  0.039694     16.000000
  0.019847  0.049617  0.039694     16.000000
  0.029770  0.049617  0.039694     16.000000
  0.039694  0.049617  0.039694     16.000000
  0.049617  0.049617  0.039694     16.000000
  0.059541  0.049617  0.039694      8.000000
  0.000000  0.059541  0.039694      4.000000
  0.009923  0.059541  0.039694      8.000000
  0.019847  0.059541  0.039694      8.000000
  0.029770  0.059541  0.039694      8.000000
  0.039694  0.059541  0.039694      8.000000
  0.049617  0.059541  0.039694      8.000000
  0.059541  0.059541  0.039694      4.000000
  0.000000  0.049617  0.049617      4.000000
  0.009923  0.049617  0.049617      8.000000
  0.019847  0.049617  0.049617      8.000000
  0.029770  0.049617  0.049617      8.000000
  0.039694  0.049617  0.049617      8.000000
  0.049617  0.049617  0.049617      8.000000
  0.059541  0.049617  0.049617      4.000000
  0.000000  0.059541  0.049617      4.000000
  0.009923  0.059541  0.049617      8.000000
  0.019847  0.059541  0.049617      8.000000
  0.029770  0.059541  0.049617      8.000000
  0.039694  0.059541  0.049617      8.000000
  0.049617  0.059541  0.049617      8.000000
  0.059541  0.059541  0.049617      4.000000
  0.000000  0.059541  0.059541      1.000000
  0.009923  0.059541  0.059541      2.000000
  0.019847  0.059541  0.059541      2.000000
  0.029770  0.059541  0.059541      2.000000
  0.039694  0.059541  0.059541      2.000000
  0.049617  0.059541  0.059541      2.000000
  0.059541  0.059541  0.059541      1.000000
 


--------------------------------------------------------------------------------------------------------




 Dimension of arrays:
   k-Points           NKPTS =    196   number of bands    NBANDS=     68
   number of dos      NEDOS =    301   number of ions     NIONS =     32
   non local maximal  LDIM  =      4   non local SUM 2l+1 LMDIM =      8
   total plane-waves  NPLWV = 262144
   max r-space proj   IRMAX =      1   max aug-charges    IRDMAX=  17426
   dimension x,y,z NGX =    64 NGY =   64 NGZ =   64
   dimension x,y,z NGXF=   128 NGYF=  128 NGZF=  128
   support grid    NGXF=   128 NGYF=  128 NGZF=  128
   ions per type =              32
 NGX,Y,Z   is equivalent  to a cutoff of  12.67, 12.67, 12.67 a.u.
 NGXF,Y,Z  is equivalent  to a cutoff of  25.34, 25.34, 25.34 a.u.


 I would recommend the setting:
   dimension x,y,z NGX =    61 NGY =   61 NGZ =   61
 SYSTEM =  unknown system                          
 POSCAR =  Al                                      

 Startparameter for this run:
   NWRITE =      2    write-flag & timer
   PREC   = accura    medium, high low
   ISTART =      0    job   : 0-new  1-cont  2-samecut
   ICHARG =      2    charge: 1-file 2-atom 10-const
   ISPIN  =      1    spin polarized calculation?
   LNONCOLLINEAR =      F non collinear calculations
   LSORBIT =      F    spin-orbit coupling
   INIWAV =      1    electr: 0-lowe 1-rand  2-diag
   LASPH  =      F    aspherical Exc in radial PAW
   METAGGA=      F    non-selfconsistent MetaGGA calc.

 Electronic Relaxation 1
   ENCUT  =  500.0 eV  36.75 Ry    6.06 a.u.  15.31 15.31 15.31*2*pi/ulx,y,z
   ENINI  =  500.0     initial cutoff
   ENAUG  =  291.1 eV  augmentation charge cutoff
   NELM   =     60;   NELMIN=  2; NELMDL=  0     # of ELM steps 
   EDIFF  = 0.1E-07   stopping-criterion for ELM
   LREAL  =      F    real-space projection
   LCOMPAT=      F    compatible to vasp.4.4
   LREAL_COMPAT= F    compatible to vasp.4.5.1-3
   GGA_COMPAT  = T    GGA compatible to vasp.4.4-vasp.4.6
   LMAXPAW     = -100 max onsite density
   LMAXMIX     =    2 max onsite mixed and CHGCAR
   VOSKOWN=      0    Vosko Wilk Nusair interpolation
   ROPT   =    0.00000
 Ionic relaxation
   EDIFFG = 0.1E-06   stopping-criterion for IOM
   NSW    =      0    number of steps for IOM
   NBLOCK =      1;   KBLOCK =      1    inner block; outer block 
   IBRION =     -1    ionic relax: 0-MD 1-quasi-New 2-CG
   NFREE  =      0    steps in history (QN), initial steepest desc. (CG)
   ISIF   =      2    stress and relaxation
   IWAVPR =     10    prediction:  0-non 1-charg 2-wave 3-comb
   ISYM   =      2    0-nonsym 1-usesym 2-fastsym
   LCORR  =      T    Harris-Foulkes like correction to forces

   POTIM  =   0.50    time-step for ionic-motion
   TEIN   =    0.0    initial temperature
   TEBEG  =    0.0;   TEEND  =   0.0 temperature during run
   SMASS  =  -3.00    Nose mass-parameter (am)
   estimated Nose-frequenzy (Omega)   =  0.10E-29 period in steps =****** mass=  -0.161E-26a.u.
   NPACO  =    256;   APACO  = 16.0  distance and # of slots for P.C.
   PSTRESS=    0.0 pullay stress

  Mass of Ions in am
   POMASS =  26.98
  Ionic Valenz
   ZVAL   =   3.00
  Atomic Wigner-Seitz radii
   RWIGS  =  -1.00
   NELECT =      96.0000    total number of electrons
   NUPDOWN=      -1.0000    fix difference up-down

 DOS related values:
   EMIN   =  10.00;   EMAX   =-10.00  energy-range for DOS
   ISMEAR =     0;   SIGMA  =   0.01  broadening in eV -4-tet -1-fermi 0-gaus

 Electronic relaxation 2 (details)
   IALGO  =     38    algorithm
   LDIAG  =      T    sub-space diagonalisation
   IMIX   =      4    mixing-type and parameters
     AMIX     =   0.40;   BMIX     =  1.00
     AMIX_MAG =   1.60;   BMIX_MAG =  1.00
     AMIN     =   0.10
     WC   =   100.;   INIMIX=   1;  MIXPRE=   1

 Intra band minimization:
   WEIMIN = 0.0000     energy-eigenvalue tresh-hold
   EBREAK =  0.38E-10  absolut break condition
   DEPER  =   0.30     relativ break condition  

   TIME   =   0.10     timestep for ELM

  volume/ion in A,a.u.               =      18.51       124.89
  Fermi-wavevector in a.u.,eV,Ry     =   0.892641 10.841232  0.796808

 Second variation
   LSECVAR=     F    do a second variation
 
 Write flags
   LWAVE  =      F    write WAVECAR
   LCHARG =      F    write CHGCAR
   LVTOT  =      F    write LOCPOT, local potential
   LELF   =      F    write electronic localiz. function (ELF)
   LORBIT =      0    0 simple, 1 ext, 2 COOP (PROOUT)


 Dipole corrections
   IDIPOL =      0    1-x, 2-y, 3-z
   LDIPOL =      F    correct potential



--------------------------------------------------------------------------------------------------------


 Static calculation
 charge density will be updated during run
 non-spin polarized calculation
 Variant of blocked Davidson
 Davidson routine will perform the subspace rotation
 performe sub-space diagonalisation
    after iterative eigenvector-optimisation
 modified Broyden-mixing scheme, WC =      100.0
 initial mixing is a Kerker type mixing with AMIX =  0.4000 and BMIX =      1.0000
 Hartree-type preconditioning will be used
 using additional bands           20
 reciprocal scheme for non local part
 use partial core corrections
 calculate Harris-corrections to forces 
   (improved forces if not selfconsistent)
 use gradient corrections 
 use of overlap-Matrix (Vanderbilt PP)
 Gauss-broadening in eV      SIGMA  =   0.01


--------------------------------------------------------------------------------------------------------


  energy-cutoff  :      500.00
  volume of cell :      592.20
      direct lattice vectors                 reciprocal lattice vectors
     8.397597249  0.000000000  0.000000000     0.119081681  0.000000000  0.000000000
     0.000000000  8.397597249  0.000000000     0.000000000  0.119081681  0.000000000
     0.000000000  0.000000000  8.397597249     0.000000000  0.000000000  0.119081681

  length of vectors
     8.397597249  8.397597249  8.397597249     0.119081681  0.119081681  0.119081681


 
 k-points in units of 2pi/SCALE and weight: Automatic mesh                          
   0.00000000  0.00000000  0.00000000       0.001
   0.00992347  0.00000000  0.00000000       0.001
   0.01984695  0.00000000  0.00000000       0.001
   0.02977042  0.00000000  0.00000000       0.001
   0.03969389  0.00000000  0.00000000       0.001
   0.04961737  0.00000000  0.00000000       0.001
   0.05954084  0.00000000  0.00000000       0.001
   0.00000000  0.00992347  0.00000000       0.002
   0.00992347  0.00992347  0.00000000       0.005
   0.01984695  0.00992347  0.00000000       0.005
   0.02977042  0.00992347  0.00000000       0.005
   0.03969389  0.00992347  0.00000000       0.005
   0.04961737  0.00992347  0.00000000       0.005
   0.05954084  0.00992347  0.00000000       0.002
   0.00000000  0.01984695  0.00000000       0.002
   0.00992347  0.01984695  0.00000000       0.005
   0.01984695  0.01984695  0.00000000       0.005
   0.02977042  0.01984695  0.00000000       0.005
   0.03969389  0.01984695  0.00000000       0.005
   0.04961737  0.01984695  0.00000000       0.005
   0.05954084  0.01984695  0.00000000       0.002
   0.00000000  0.02977042  0.00000000       0.002
   0.00992347  0.02977042  0.00000000       0.005
   0.01984695  0.02977042  0.00000000       0.005
   0.02977042  0.02977042  0.00000000       0.005
   0.03969389  0.02977042  0.00000000       0.005
   0.04961737  0.02977042  0.00000000       0.005
   0.05954084  0.02977042  0.00000000       0.002
   0.00000000  0.03969389  0.00000000       0.002
   0.00992347  0.03969389  0.00000000       0.005
   0.01984695  0.03969389  0.00000000       0.005
   0.02977042  0.03969389  0.00000000       0.005
   0.03969389  0.03969389  0.00000000       0.005
   0.04961737  0.03969389  0.00000000       0.005
   0.05954084  0.03969389  0.00000000       0.002
   0.00000000  0.04961737  0.00000000       0.002
   0.00992347  0.04961737  0.00000000       0.005
   0.01984695  0.04961737  0.00000000       0.005
   0.02977042  0.04961737  0.00000000       0.005
   0.03969389  0.04961737  0.00000000       0.005
   0.04961737  0.04961737  0.00000000       0.005
   0.05954084  0.04961737  0.00000000       0.002
   0.00000000  0.05954084  0.00000000       0.001
   0.00992347  0.05954084  0.00000000       0.002
   0.01984695  0.05954084  0.00000000       0.002
   0.02977042  0.05954084  0.00000000       0.002
   0.03969389  0.05954084  0.00000000       0.002
   0.04961737  0.05954084  0.00000000       0.002
   0.05954084  0.05954084  0.00000000       0.001
   0.00000000  0.00992347  0.00992347       0.002
   0.00992347  0.00992347  0.00992347       0.005
   0.01984695  0.00992347  0.00992347       0.005
   0.02977042  0.00992347  0.00992347       0.005
   0.03969389  0.00992347  0.00992347       0.005
   0.04961737  0.00992347  0.00992347       0.005
   0.05954084  0.00992347  0.00992347       0.002
   0.00000000  0.01984695  0.00992347       0.005
   0.00992347  0.01984695  0.00992347       0.009
   0.01984695  0.01984695  0.00992347       0.009
   0.02977042  0.01984695  0.00992347       0.009
   0.03969389  0.01984695  0.00992347       0.009
   0.04961737  0.01984695  0.00992347       0.009
   0.05954084  0.01984695  0.00992347       0.005
   0.00000000  0.02977042  0.00992347       0.005
   0.00992347  0.02977042  0.00992347       0.009
   0.01984695  0.02977042  0.00992347       0.009
   0.02977042  0.02977042  0.00992347       0.009
   0.03969389  0.02977042  0.00992347       0.009
   0.04961737  0.02977042  0.00992347       0.009
   0.05954084  0.02977042  0.00992347       0.005
   0.00000000  0.03969389  0.00992347       0.005
   0.00992347  0.03969389  0.00992347       0.009
   0.01984695  0.03969389  0.00992347       0.009
   0.02977042  0.03969389  0.00992347       0.009
   0.03969389  0.03969389  0.00992347       0.009
   0.04961737  0.03969389  0.00992347       0.009
   0.05954084  0.03969389  0.00992347       0.005
   0.00000000  0.04961737  0.00992347       0.005
   0.00992347  0.04961737  0.00992347       0.009
   0.01984695  0.04961737  0.00992347       0.009
   0.02977042  0.04961737  0.00992347       0.009
   0.03969389  0.04961737  0.00992347       0.009
   0.04961737  0.04961737  0.00992347       0.009
   0.05954084  0.04961737  0.00992347       0.005
   0.00000000  0.05954084  0.00992347       0.002
   0.00992347  0.05954084  0.00992347       0.005
   0.01984695  0.05954084  0.00992347       0.005
   0.02977042  0.05954084  0.00992347       0.005
   0.03969389  0.05954084  0.00992347       0.005
   0.04961737  0.05954084  0.00992347       0.005
   0.05954084  0.05954084  0.00992347       0.002
   0.00000000  0.01984695  0.01984695       0.002
   0.00992347  0.01984695  0.01984695       0.005
   0.01984695  0.01984695  0.01984695       0.005
   0.02977042  0.01984695  0.01984695       0.005
   0.03969389  0.01984695  0.01984695       0.005
   0.04961737  0.01984695  0.01984695       0.005
   0.05954084  0.01984695  0.01984695       0.002
   0.00000000  0.02977042  0.01984695       0.005
   0.00992347  0.02977042  0.01984695       0.009
   0.01984695  0.02977042  0.01984695       0.009
   0.02977042  0.02977042  0.01984695       0.009
   0.03969389  0.02977042  0.01984695       0.009
   0.04961737  0.02977042  0.01984695       0.009
   0.05954084  0.02977042  0.01984695       0.005
   0.00000000  0.03969389  0.01984695       0.005
   0.00992347  0.03969389  0.01984695       0.009
   0.01984695  0.03969389  0.01984695       0.009
   0.02977042  0.03969389  0.01984695       0.009
   0.03969389  0.03969389  0.01984695       0.009
   0.04961737  0.03969389  0.01984695       0.009
   0.05954084  0.03969389  0.01984695       0.005
   0.00000000  0.04961737  0.01984695       0.005
   0.00992347  0.04961737  0.01984695       0.009
   0.01984695  0.04961737  0.01984695       0.009
   0.02977042  0.04961737  0.01984695       0.009
   0.03969389  0.04961737  0.01984695       0.009
   0.04961737  0.04961737  0.01984695       0.009
   0.05954084  0.04961737  0.01984695       0.005
   0.00000000  0.05954084  0.01984695       0.002
   0.00992347  0.05954084  0.01984695       0.005
   0.01984695  0.05954084  0.01984695       0.005
   0.02977042  0.05954084  0.01984695       0.005
   0.03969389  0.05954084  0.01984695       0.005
   0.04961737  0.05954084  0.01984695       0.005
   0.05954084  0.05954084  0.01984695       0.002
   0.00000000  0.02977042  0.02977042       0.002
   0.00992347  0.02977042  0.02977042       0.005
   0.01984695  0.02977042  0.02977042       0.005
   0.02977042  0.02977042  0.02977042       0.005
   0.03969389  0.02977042  0.02977042       0.005
   0.04961737  0.02977042  0.02977042       0.005
   0.05954084  0.02977042  0.02977042       0.002
   0.00000000  0.03969389  0.02977042       0.005
   0.00992347  0.03969389  0.02977042       0.009
   0.01984695  0.03969389  0.02977042       0.009
   0.02977042  0.03969389  0.02977042       0.009
   0.03969389  0.03969389  0.02977042       0.009
   0.04961737  0.03969389  0.02977042       0.009
   0.05954084  0.03969389  0.02977042       0.005
   0.00000000  0.04961737  0.02977042       0.005
   0.00992347  0.04961737  0.02977042       0.009
   0.01984695  0.04961737  0.02977042       0.009
   0.02977042  0.04961737  0.02977042       0.009
   0.03969389  0.04961737  0.02977042       0.009
   0.04961737  0.04961737  0.02977042       0.009
   0.05954084  0.04961737  0.02977042       0.005
   0.00000000  0.05954084  0.02977042       0.002
   0.00992347  0.05954084  0.02977042       0.005
   0.01984695  0.05954084  0.02977042       0.005
   0.02977042  0.05954084  0.02977042       0.005
   0.03969389  0.05954084  0.02977042       0.005
   0.04961737  0.05954084  0.02977042       0.005
   0.05954084  0.05954084  0.02977042       0.002
   0.00000000  0.03969389  0.03969389       0.002
   0.00992347  0.03969389  0.03969389       0.005
   0.01984695  0.03969389  0.03969389       0.005
   0.02977042  0.03969389  0.03969389       0.005
   0.03969389  0.03969389  0.03969389       0.005
   0.04961737  0.03969389  0.03969389       0.005
   0.05954084  0.03969389  0.03969389       0.002
   0.00000000  0.04961737  0.03969389       0.005
   0.00992347  0.04961737  0.03969389       0.009
   0.01984695  0.04961737  0.03969389       0.009
   0.02977042  0.04961737  0.03969389       0.009
   0.03969389  0.04961737  0.03969389       0.009
   0.04961737  0.04961737  0.03969389       0.009
   0.05954084  0.04961737  0.03969389       0.005
   0.00000000  0.05954084  0.03969389       0.002
   0.00992347  0.05954084  0.03969389       0.005
   0.01984695  0.05954084  0.03969389       0.005
   0.02977042  0.05954084  0.03969389       0.005
   0.03969389  0.05954084  0.03969389       0.005
   0.04961737  0.05954084  0.03969389       0.005
   0.05954084  0.05954084  0.03969389       0.002
   0.00000000  0.04961737  0.04961737       0.002
   0.00992347  0.04961737  0.04961737       0.005
   0.01984695  0.04961737  0.04961737       0.005
   0.02977042  0.04961737  0.04961737       0.005
   0.03969389  0.04961737  0.04961737       0.005
   0.04961737  0.04961737  0.04961737       0.005
   0.05954084  0.04961737  0.04961737       0.002
   0.00000000  0.05954084  0.04961737       0.002
   0.00992347  0.05954084  0.04961737       0.005
   0.01984695  0.05954084  0.04961737       0.005
   0.02977042  0.05954084  0.04961737       0.005
   0.03969389  0.05954084  0.04961737       0.005
   0.04961737  0.05954084  0.04961737       0.005
   0.05954084  0.05954084  0.04961737       0.002
   0.00000000  0.05954084  0.05954084       0.001
   0.00992347  0.05954084  0.05954084       0.001
   0.01984695  0.05954084  0.05954084       0.001
   0.02977042  0.05954084  0.05954084       0.001
   0.03969389  0.05954084  0.05954084       0.001
   0.04961737  0.05954084  0.05954084       0.001
   0.05954084  0.05954084  0.05954084       0.001
 
 k-points in reciprocal lattice and weights: Automatic mesh                          
   0.00000000  0.00000000  0.00000000       0.001
   0.08333333  0.00000000  0.00000000       0.001
   0.16666667  0.00000000  0.00000000       0.001
   0.25000000  0.00000000  0.00000000       0.001
   0.33333333  0.00000000  0.00000000       0.001
   0.41666667  0.00000000  0.00000000       0.001
   0.50000000  0.00000000  0.00000000       0.001
   0.00000000  0.08333333  0.00000000       0.002
   0.08333333  0.08333333  0.00000000       0.005
   0.16666667  0.08333333  0.00000000       0.005
   0.25000000  0.08333333  0.00000000       0.005
   0.33333333  0.08333333  0.00000000       0.005
   0.41666667  0.08333333  0.00000000       0.005
   0.50000000  0.08333333  0.00000000       0.002
   0.00000000  0.16666667  0.00000000       0.002
   0.08333333  0.16666667  0.00000000       0.005
   0.16666667  0.16666667  0.00000000       0.005
   0.25000000  0.16666667  0.00000000       0.005
   0.33333333  0.16666667  0.00000000       0.005
   0.41666667  0.16666667  0.00000000       0.005
   0.50000000  0.16666667  0.00000000       0.002
   0.00000000  0.25000000  0.00000000       0.002
   0.08333333  0.25000000  0.00000000       0.005
   0.16666667  0.25000000  0.00000000       0.005
   0.25000000  0.25000000  0.00000000       0.005
   0.33333333  0.25000000  0.00000000       0.005
   0.41666667  0.25000000  0.00000000       0.005
   0.50000000  0.25000000  0.00000000       0.002
   0.00000000  0.33333333  0.00000000       0.002
   0.08333333  0.33333333  0.00000000       0.005
   0.16666667  0.33333333  0.00000000       0.005
   0.25000000  0.33333333  0.00000000       0.005
   0.33333333  0.33333333  0.00000000       0.005
   0.41666667  0.33333333  0.00000000       0.005
   0.50000000  0.33333333  0.00000000       0.002
   0.00000000  0.41666667  0.00000000       0.002
   0.08333333  0.41666667  0.00000000       0.005
   0.16666667  0.41666667  0.00000000       0.005
   0.25000000  0.41666667  0.00000000       0.005
   0.33333333  0.41666667  0.00000000       0.005
   0.41666667  0.41666667  0.00000000       0.005
   0.50000000  0.41666667  0.00000000       0.002
   0.00000000  0.50000000  0.00000000       0.001
   0.08333333  0.50000000  0.00000000       0.002
   0.16666667  0.50000000  0.00000000       0.002
   0.25000000  0.50000000  0.00000000       0.002
   0.33333333  0.50000000  0.00000000       0.002
   0.41666667  0.50000000  0.00000000       0.002
   0.50000000  0.50000000  0.00000000       0.001
   0.00000000  0.08333333  0.08333333       0.002
   0.08333333  0.08333333  0.08333333       0.005
   0.16666667  0.08333333  0.08333333       0.005
   0.25000000  0.08333333  0.08333333       0.005
   0.33333333  0.08333333  0.08333333       0.005
   0.41666667  0.08333333  0.08333333       0.005
   0.50000000  0.08333333  0.08333333       0.002
   0.00000000  0.16666667  0.08333333       0.005
   0.08333333  0.16666667  0.08333333       0.009
   0.16666667  0.16666667  0.08333333       0.009
   0.25000000  0.16666667  0.08333333       0.009
   0.33333333  0.16666667  0.08333333       0.009
   0.41666667  0.16666667  0.08333333       0.009
   0.50000000  0.16666667  0.08333333       0.005
   0.00000000  0.25000000  0.08333333       0.005
   0.08333333  0.25000000  0.08333333       0.009
   0.16666667  0.25000000  0.08333333       0.009
   0.25000000  0.25000000  0.08333333       0.009
   0.33333333  0.25000000  0.08333333       0.009
   0.41666667  0.25000000  0.08333333       0.009
   0.50000000  0.25000000  0.08333333       0.005
   0.00000000  0.33333333  0.08333333       0.005
   0.08333333  0.33333333  0.08333333       0.009
   0.16666667  0.33333333  0.08333333       0.009
   0.25000000  0.33333333  0.08333333       0.009
   0.33333333  0.33333333  0.08333333       0.009
   0.41666667  0.33333333  0.08333333       0.009
   0.50000000  0.33333333  0.08333333       0.005
   0.00000000  0.41666667  0.08333333       0.005
   0.08333333  0.41666667  0.08333333       0.009
   0.16666667  0.41666667  0.08333333       0.009
   0.25000000  0.41666667  0.08333333       0.009
   0.33333333  0.41666667  0.08333333       0.009
   0.41666667  0.41666667  0.08333333       0.009
   0.50000000  0.41666667  0.08333333       0.005
   0.00000000  0.50000000  0.08333333       0.002
   0.08333333  0.50000000  0.08333333       0.005
   0.16666667  0.50000000  0.08333333       0.005
   0.25000000  0.50000000  0.08333333       0.005
   0.33333333  0.50000000  0.08333333       0.005
   0.41666667  0.50000000  0.08333333       0.005
   0.50000000  0.50000000  0.08333333       0.002
   0.00000000  0.16666667  0.16666667       0.002
   0.08333333  0.16666667  0.16666667       0.005
   0.16666667  0.16666667  0.16666667       0.005
   0.25000000  0.16666667  0.16666667       0.005
   0.33333333  0.16666667  0.16666667       0.005
   0.41666667  0.16666667  0.16666667       0.005
   0.50000000  0.16666667  0.16666667       0.002
   0.00000000  0.25000000  0.16666667       0.005
   0.08333333  0.25000000  0.16666667       0.009
   0.16666667  0.25000000  0.16666667       0.009
   0.25000000  0.25000000  0.16666667       0.009
   0.33333333  0.25000000  0.16666667       0.009
   0.41666667  0.25000000  0.16666667       0.009
   0.50000000  0.25000000  0.16666667       0.005
   0.00000000  0.33333333  0.16666667       0.005
   0.08333333  0.33333333  0.16666667       0.009
   0.16666667  0.33333333  0.16666667       0.009
   0.25000000  0.33333333  0.16666667       0.009
   0.33333333  0.33333333  0.16666667       0.009
   0.41666667  0.33333333  0.16666667       0.009
   0.50000000  0.33333333  0.16666667       0.005
   0.00000000  0.41666667  0.16666667       0.005
   0.08333333  0.41666667  0.16666667       0.009
   0.16666667  0.41666667  0.16666667       0.009
   0.25000000  0.41666667  0.16666667       0.009
   0.33333333  0.41666667  0.16666667       0.009
   0.41666667  0.41666667  0.16666667       0.009
   0.50000000  0.41666667  0.16666667       0.005
   0.00000000  0.50000000  0.16666667       0.002
   0.08333333  0.50000000  0.16666667       0.005
   0.16666667  0.50000000  0.16666667       0.005
   0.25000000  0.50000000  0.16666667       0.005
   0.33333333  0.50000000  0.16666667       0.005
   0.41666667  0.50000000  0.16666667       0.005
   0.50000000  0.50000000  0.16666667       0.002
   0.00000000  0.25000000  0.25000000       0.002
   0.08333333  0.25000000  0.25000000       0.005
   0.16666667  0.25000000  0.25000000       0.005
   0.25000000  0.25000000  0.25000000       0.005
   0.33333333  0.25000000  0.25000000       0.005
   0.41666667  0.25000000  0.25000000       0.005
   0.50000000  0.25000000  0.25000000       0.002
   0.00000000  0.33333333  0.25000000       0.005
   0.08333333  0.33333333  0.25000000       0.009
   0.16666667  0.33333333  0.25000000       0.009
   0.25000000  0.33333333  0.25000000       0.009
   0.33333333  0.33333333  0.25000000       0.009
   0.41666667  0.33333333  0.25000000       0.009
   0.50000000  0.33333333  0.25000000       0.005
   0.00000000  0.41666667  0.25000000       0.005
   0.08333333  0.41666667  0.25000000       0.009
   0.16666667  0.41666667  0.25000000       0.009
   0.25000000  0.41666667  0.25000000       0.009
   0.33333333  0.41666667  0.25000000       0.009
   0.41666667  0.41666667  0.25000000       0.009
   0.50000000  0.41666667  0.25000000       0.005
   0.00000000  0.50000000  0.25000000       0.002
   0.08333333  0.50000000  0.25000000       0.005
   0.16666667  0.50000000  0.25000000       0.005
   0.25000000  0.50000000  0.25000000       0.005
   0.33333333  0.50000000  0.25000000       0.005
   0.41666667  0.50000000  0.25000000       0.005
   0.50000000  0.50000000  0.25000000       0.002
   0.00000000  0.33333333  0.33333333       0.002
   0.08333333  0.33333333  0.33333333       0.005
   0.16666667  0.33333333  0.33333333       0.005
   0.25000000  0.33333333  0.33333333       0.005
   0.33333333  0.33333333  0.33333333       0.005
   0.41666667  0.33333333  0.33333333       0.005
   0.50000000  0.33333333  0.33333333       0.002
   0.00000000  0.41666667  0.33333333       0.005
   0.08333333  0.41666667  0.33333333       0.009
   0.16666667  0.41666667  0.33333333       0.009
   0.25000000  0.41666667  0.33333333       0.009
   0.33333333  0.41666667  0.33333333       0.009
   0.41666667  0.41666667  0.33333333       0.009
   0.50000000  0.41666667  0.33333333       0.005
   0.00000000  0.50000000  0.33333333       0.002
   0.08333333  0.50000000  0.33333333       0.005
   0.16666667  0.50000000  0.33333333       0.005
   0.25000000  0.50000000  0.33333333       0.005
   0.33333333  0.50000000  0.33333333       0.005
   0.41666667  0.50000000  0.33333333       0.005
   0.50000000  0.50000000  0.33333333       0.002
   0.00000000  0.41666667  0.41666667       0.002
   0.08333333  0.41666667  0.41666667       0.005
   0.16666667  0.41666667  0.41666667       0.005
   0.25000000  0.41666667  0.41666667       0.005
   0.33333333  0.41666667  0.41666667       0.005
   0.41666667  0.41666667  0.41666667       0.005
   0.50000000  0.41666667  0.41666667       0.002
   0.00000000  0.50000000  0.41666667       0.002
   0.08333333  0.50000000  0.41666667       0.005
   0.16666667  0.50000000  0.41666667       0.005
   0.25000000  0.50000000  0.41666667       0.005
   0.33333333  0.50000000  0.41666667       0.005
   0.41666667  0.50000000  0.41666667       0.005
   0.50000000  0.50000000  0.41666667       0.002
   0.00000000  0.50000000  0.50000000       0.001
   0.08333333  0.50000000  0.50000000       0.001
   0.16666667  0.50000000  0.50000000       0.001
   0.25000000  0.50000000  0.50000000       0.001
   0.33333333  0.50000000  0.50000000       0.001
   0.41666667  0.50000000  0.50000000       0.001
   0.50000000  0.50000000  0.50000000       0.001
 
 position of ions in fractional coordinates (direct lattice) 
   0.25119082  0.25000000  0.00000000
   0.75000000  0.25000000  0.00000000
   0.25000000  0.75000000  0.00000000
   0.75000000  0.75000000  0.00000000
   0.25000000  0.25000000  0.50000000
   0.75000000  0.25000000  0.50000000
   0.25000000  0.75000000  0.50000000
   0.75000000  0.75000000  0.50000000
   0.25000000  0.00000000  0.25000000
   0.75000000  0.00000000  0.25000000
   0.25000000  0.50000000  0.25000000
   0.75000000  0.50000000  0.25000000
   0.25000000  0.00000000  0.75000000
   0.75000000  0.00000000  0.75000000
   0.25000000  0.50000000  0.75000000
   0.75000000  0.50000000  0.75000000
   0.00000000  0.25000000  0.25000000
   0.50000000  0.25000000  0.25000000
   0.00000000  0.75000000  0.25000000
   0.50000000  0.75000000  0.25000000
   0.00000000  0.25000000  0.75000000
   0.50000000  0.25000000  0.75000000
   0.00000000  0.75000000  0.75000000
   0.50000000  0.75000000  0.75000000
   0.00000000  0.00000000  0.00000000
   0.50000000  0.00000000  0.00000000
   0.00000000  0.50000000  0.00000000
   0.50000000  0.50000000  0.00000000
   0.00000000  0.00000000  0.50000000
   0.50000000  0.00000000  0.50000000
   0.00000000  0.50000000  0.50000000
   0.50000000  0.50000000  0.50000000
 
 position of ions in cartesian coordinates  (Angst):
   2.10939931  2.09939931  0.00000000
   6.29819794  2.09939931  0.00000000
   2.09939931  6.29819794  0.00000000
   6.29819794  6.29819794  0.00000000
   2.09939931  2.09939931  4.19879862
   6.29819794  2.09939931  4.19879862
   2.09939931  6.29819794  4.19879862
   6.29819794  6.29819794  4.19879862
   2.09939931  0.00000000  2.09939931
   6.29819794  0.00000000  2.09939931
   2.09939931  4.19879862  2.09939931
   6.29819794  4.19879862  2.09939931
   2.09939931  0.00000000  6.29819794
   6.29819794  0.00000000  6.29819794
   2.09939931  4.19879862  6.29819794
   6.29819794  4.19879862  6.29819794
   0.00000000  2.09939931  2.09939931
   4.19879862  2.09939931  2.09939931
   0.00000000  6.29819794  2.09939931
   4.19879862  6.29819794  2.09939931
   0.00000000  2.09939931  6.29819794
   4.19879862  2.09939931  6.29819794
   0.00000000  6.29819794  6.29819794
   4.19879862  6.29819794  6.29819794
   0.00000000  0.00000000  0.00000000
   4.19879862  0.00000000  0.00000000
   0.00000000  4.19879862  0.00000000
   4.19879862  4.19879862  0.00000000
   0.00000000  0.00000000  4.19879862
   4.19879862  0.00000000  4.19879862
   0.00000000  4.19879862  4.19879862
   4.19879862  4.19879862  4.19879862
 


--------------------------------------------------------------------------------------------------------


 k-point  1 :  0.00000.00000.0000  plane waves:  15155
 k-point  2 :  0.08330.00000.0000  plane waves:  15059
 k-point  3 :  0.16670.00000.0000  plane waves:  15087
 k-point  4 :  0.25000.00000.0000  plane waves:  15027
 k-point  5 :  0.33330.00000.0000  plane waves:  15022
 k-point  6 :  0.41670.00000.0000  plane waves:  15054
 k-point  7 :  0.50000.00000.0000  plane waves:  15006
 k-point  8 :  0.00000.08330.0000  plane waves:  15059
 k-point  9 :  0.08330.08330.0000  plane waves:  15065
 k-point 10 :  0.16670.08330.0000  plane waves:  15077
 k-point 11 :  0.25000.08330.0000  plane waves:  15056
 k-point 12 :  0.33330.08330.0000  plane waves:  15017
 k-point 13 :  0.41670.08330.0000  plane waves:  15023
 k-point 14 :  0.50000.08330.0000  plane waves:  15000
 k-point 15 :  0.00000.16670.0000  plane waves:  15087
 k-point 16 :  0.08330.16670.0000  plane waves:  15077
 k-point 17 :  0.16670.16670.0000  plane waves:  15055
 k-point 18 :  0.25000.16670.0000  plane waves:  15019
 k-point 19 :  0.33330.16670.0000  plane waves:  15012
 k-point 20 :  0.41670.16670.0000  plane waves:  15036
 k-point 21 :  0.50000.16670.0000  plane waves:  15034
 k-point 22 :  0.00000.25000.0000  plane waves:  15027
 k-point 23 :  0.08330.25000.0000  plane waves:  15056
 k-point 24 :  0.16670.25000.0000  plane waves:  15019
 k-point 25 :  0.25000.25000.0000  plane waves:  15032
 k-point 26 :  0.33330.25000.0000  plane waves:  15041
 k-point 27 :  0.41670.25000.0000  plane waves:  15048
 k-point 28 :  0.50000.25000.0000  plane waves:  15066
 k-point 29 :  0.00000.33330.0000  plane waves:  15022
 k-point 30 :  0.08330.33330.0000  plane waves:  15017
 k-point 31 :  0.16670.33330.0000  plane waves:  15012
 k-point 32 :  0.25000.33330.0000  plane waves:  15041
 k-point 33 :  0.33330.33330.0000  plane waves:  15018
 k-point 34 :  0.41670.33330.0000  plane waves:  15023
 k-point 35 :  0.50000.33330.0000  plane waves:  15048
 k-point 36 :  0.00000.41670.0000  plane waves:  15054
 k-point 37 :  0.08330.41670.0000  plane waves:  15023
 k-point 38 :  0.16670.41670.0000  plane waves:  15036
 k-point 39 :  0.25000.41670.0000  plane waves:  15048
 k-point 40 :  0.33330.41670.0000  plane waves:  15023
 k-point 41 :  0.41670.41670.0000  plane waves:  15036
 k-point 42 :  0.50000.41670.0000  plane waves:  15028
 k-point 43 :  0.00000.50000.0000  plane waves:  15006
 k-point 44 :  0.08330.50000.0000  plane waves:  15000
 k-point 45 :  0.16670.50000.0000  plane waves:  15034
 k-point 46 :  0.25000.50000.0000  plane waves:  15066
 k-point 47 :  0.33330.50000.0000  plane waves:  15048
 k-point 48 :  0.41670.50000.0000  plane waves:  15028
 k-point 49 :  0.50000.50000.0000  plane waves:  15036
 k-point 50 :  0.00000.08330.0833  plane waves:  15065
 k-point 51 :  0.08330.08330.0833  plane waves:  15083
 k-point 52 :  0.16670.08330.0833  plane waves:  15062
 k-point 53 :  0.25000.08330.0833  plane waves:  15045
 k-point 54 :  0.33330.08330.0833  plane waves:  15032
 k-point 55 :  0.41670.08330.0833  plane waves:  15026
 k-point 56 :  0.50000.08330.0833  plane waves:  15016
 k-point 57 :  0.00000.16670.0833  plane waves:  15077
 k-point 58 :  0.08330.16670.0833  plane waves:  15062
 k-point 59 :  0.16670.16670.0833  plane waves:  15049
 k-point 60 :  0.25000.16670.0833  plane waves:  15039
 k-point 61 :  0.33330.16670.0833  plane waves:  15033
 k-point 62 :  0.41670.16670.0833  plane waves:  15036
 k-point 63 :  0.50000.16670.0833  plane waves:  15016
 k-point 64 :  0.00000.25000.0833  plane waves:  15056
 k-point 65 :  0.08330.25000.0833  plane waves:  15045
 k-point 66 :  0.16670.25000.0833  plane waves:  15039
 k-point 67 :  0.25000.25000.0833  plane waves:  15029
 k-point 68 :  0.33330.25000.0833  plane waves:  15038
 k-point 69 :  0.41670.25000.0833  plane waves:  15043
 k-point 70 :  0.50000.25000.0833  plane waves:  15032
 k-point 71 :  0.00000.33330.0833  plane waves:  15017
 k-point 72 :  0.08330.33330.0833  plane waves:  15032
 k-point 73 :  0.16670.33330.0833  plane waves:  15033
 k-point 74 :  0.25000.33330.0833  plane waves:  15038
 k-point 75 :  0.33330.33330.0833  plane waves:  15028
 k-point 76 :  0.41670.33330.0833  plane waves:  15030
 k-point 77 :  0.50000.33330.0833  plane waves:  15044
 k-point 78 :  0.00000.41670.0833  plane waves:  15023
 k-point 79 :  0.08330.41670.0833  plane waves:  15026
 k-point 80 :  0.16670.41670.0833  plane waves:  15036
 k-point 81 :  0.25000.41670.0833  plane waves:  15043
 k-point 82 :  0.33330.41670.0833  plane waves:  15030
 k-point 83 :  0.41670.41670.0833  plane waves:  15029
 k-point 84 :  0.50000.41670.0833  plane waves:  15028
 k-point 85 :  0.00000.50000.0833  plane waves:  15000
 k-point 86 :  0.08330.50000.0833  plane waves:  15016
 k-point 87 :  0.16670.50000.0833  plane waves:  15016
 k-point 88 :  0.25000.50000.0833  plane waves:  15032
 k-point 89 :  0.33330.50000.0833  plane waves:  15044
 k-point 90 :  0.41670.50000.0833  plane waves:  15028
 k-point 91 :  0.50000.50000.0833  plane waves:  15036
 k-point 92 :  0.00000.16670.1667  plane waves:  15055
 k-point 93 :  0.08330.16670.1667  plane waves:  15049
 k-point 94 :  0.16670.16670.1667  plane waves:  15027
 k-point 95 :  0.25000.16670.1667  plane waves:  15017
 k-point 96 :  0.33330.16670.1667  plane waves:  15026
 k-point 97 :  0.41670.16670.1667  plane waves:  15029
 k-point 98 :  0.50000.16670.1667  plane waves:  15044
 k-point 99 :  0.00000.25000.1667  plane waves:  15019
 k-point ** :  0.08330.25000.1667  plane waves:  15039
 k-point ** :  0.16670.25000.1667  plane waves:  15017
 k-point ** :  0.25000.25000.1667  plane waves:  15023
 k-point ** :  0.33330.25000.1667  plane waves:  15045
 k-point ** :  0.41670.25000.1667  plane waves:  15031
 k-point ** :  0.50000.25000.1667  plane waves:  15042
 k-point ** :  0.00000.33330.1667  plane waves:  15012
 k-point ** :  0.08330.33330.1667  plane waves:  15033
 k-point ** :  0.16670.33330.1667  plane waves:  15026
 k-point ** :  0.25000.33330.1667  plane waves:  15045
 k-point ** :  0.33330.33330.1667  plane waves:  15035
 k-point ** :  0.41670.33330.1667  plane waves:  15033
 k-point ** :  0.50000.33330.1667  plane waves:  15048
 k-point ** :  0.00000.41670.1667  plane waves:  15036
 k-point ** :  0.08330.41670.1667  plane waves:  15036
 k-point ** :  0.16670.41670.1667  plane waves:  15029
 k-point ** :  0.25000.41670.1667  plane waves:  15031
 k-point ** :  0.33330.41670.1667  plane waves:  15033
 k-point ** :  0.41670.41670.1667  plane waves:  15042
 k-point ** :  0.50000.41670.1667  plane waves:  15024
 k-point ** :  0.00000.50000.1667  plane waves:  15034
 k-point ** :  0.08330.50000.1667  plane waves:  15016
 k-point ** :  0.16670.50000.1667  plane waves:  15044
 k-point ** :  0.25000.50000.1667  plane waves:  15042
 k-point ** :  0.33330.50000.1667  plane waves:  15048
 k-point ** :  0.41670.50000.1667  plane waves:  15024
 k-point ** :  0.50000.50000.1667  plane waves:  15020
 k-point ** :  0.00000.25000.2500  plane waves:  15032
 k-point ** :  0.08330.25000.2500  plane waves:  15029
 k-point ** :  0.16670.25000.2500  plane waves:  15023
 k-point ** :  0.25000.25000.2500  plane waves:  15021
 k-point ** :  0.33330.25000.2500  plane waves:  15036
 k-point ** :  0.41670.25000.2500  plane waves:  15041
 k-point ** :  0.50000.25000.2500  plane waves:  15050
 k-point ** :  0.00000.33330.2500  plane waves:  15041
 k-point ** :  0.08330.33330.2500  plane waves:  15038
 k-point ** :  0.16670.33330.2500  plane waves:  15045
 k-point ** :  0.25000.33330.2500  plane waves:  15036
 k-point ** :  0.33330.33330.2500  plane waves:  15017
 k-point ** :  0.41670.33330.2500  plane waves:  15021
 k-point ** :  0.50000.33330.2500  plane waves:  15018
 k-point ** :  0.00000.41670.2500  plane waves:  15048
 k-point ** :  0.08330.41670.2500  plane waves:  15043
 k-point ** :  0.16670.41670.2500  plane waves:  15031
 k-point ** :  0.25000.41670.2500  plane waves:  15041
 k-point ** :  0.33330.41670.2500  plane waves:  15021
 k-point ** :  0.41670.41670.2500  plane waves:  15023
 k-point ** :  0.50000.41670.2500  plane waves:  15014
 k-point ** :  0.00000.50000.2500  plane waves:  15066
 k-point ** :  0.08330.50000.2500  plane waves:  15032
 k-point ** :  0.16670.50000.2500  plane waves:  15042
 k-point ** :  0.25000.50000.2500  plane waves:  15050
 k-point ** :  0.33330.50000.2500  plane waves:  15018
 k-point ** :  0.41670.50000.2500  plane waves:  15014
 k-point ** :  0.50000.50000.2500  plane waves:  14996
 k-point ** :  0.00000.33330.3333  plane waves:  15018
 k-point ** :  0.08330.33330.3333  plane waves:  15028
 k-point ** :  0.16670.33330.3333  plane waves:  15035
 k-point ** :  0.25000.33330.3333  plane waves:  15017
 k-point ** :  0.33330.33330.3333  plane waves:  15057
 k-point ** :  0.41670.33330.3333  plane waves:  15019
 k-point ** :  0.50000.33330.3333  plane waves:  15006
 k-point ** :  0.00000.41670.3333  plane waves:  15023
 k-point ** :  0.08330.41670.3333  plane waves:  15030
 k-point ** :  0.16670.41670.3333  plane waves:  15033
 k-point ** :  0.25000.41670.3333  plane waves:  15021
 k-point ** :  0.33330.41670.3333  plane waves:  15019
 k-point ** :  0.41670.41670.3333  plane waves:  15016
 k-point ** :  0.50000.41670.3333  plane waves:  15038
 k-point ** :  0.00000.50000.3333  plane waves:  15048
 k-point ** :  0.08330.50000.3333  plane waves:  15044
 k-point ** :  0.16670.50000.3333  plane waves:  15048
 k-point ** :  0.25000.50000.3333  plane waves:  15018
 k-point ** :  0.33330.50000.3333  plane waves:  15006
 k-point ** :  0.41670.50000.3333  plane waves:  15038
 k-point ** :  0.50000.50000.3333  plane waves:  15052
 k-point ** :  0.00000.41670.4167  plane waves:  15036
 k-point ** :  0.08330.41670.4167  plane waves:  15029
 k-point ** :  0.16670.41670.4167  plane waves:  15042
 k-point ** :  0.25000.41670.4167  plane waves:  15023
 k-point ** :  0.33330.41670.4167  plane waves:  15016
 k-point ** :  0.41670.41670.4167  plane waves:  15039
 k-point ** :  0.50000.41670.4167  plane waves:  15060
 k-point ** :  0.00000.50000.4167  plane waves:  15028
 k-point ** :  0.08330.50000.4167  plane waves:  15028
 k-point ** :  0.16670.50000.4167  plane waves:  15024
 k-point ** :  0.25000.50000.4167  plane waves:  15014
 k-point ** :  0.33330.50000.4167  plane waves:  15038
 k-point ** :  0.41670.50000.4167  plane waves:  15060
 k-point ** :  0.50000.50000.4167  plane waves:  15072
 k-point ** :  0.00000.50000.5000  plane waves:  15036
 k-point ** :  0.08330.50000.5000  plane waves:  15036
 k-point ** :  0.16670.50000.5000  plane waves:  15020
 k-point ** :  0.25000.50000.5000  plane waves:  14996
 k-point ** :  0.33330.50000.5000  plane waves:  15052
 k-point ** :  0.41670.50000.5000  plane waves:  15072
 k-point ** :  0.50000.50000.5000  plane waves:  15000

 maximum and minimum number of plane-waves per node :  15155 14996

 maximum number of plane-waves:  15155
 maximal index in each direction: 
   IXMAX= 15   IYMAX= 15   IZMAX= 15
   IXMIN=-15   IYMIN=-15   IZMIN=-15

 NGX is ok and might be reduce to  62
 NGY is ok and might be reduce to  62
 NGZ is ok and might be reduce to  62

 parallel 3dFFT wavefunction:
    minimum data exchange during FFTs selected (reduces bandwidth)
 parallel 3dFFT charge:
    minimum data exchange during FFTs selected (reduces bandwidth)

 For storing wavefunctions 3206.20 MBYTES are necessary
 For predicting wavefunctions   38.78 MBYTES are necessary
Broyden mixing: mesh for mixing (old mesh)
   NGX = 31   NGY = 31   NGZ = 31
  (NGX  =128   NGY  =128   NGZ  =128)
 gives a total of  29791 points
 initial charge density was supplied:
 charge density of overlapping atoms calculated
 number of electron   96.0000000 magnetization 
 keeping initial charge density in first step


--------------------------------------------------------------------------------------------------------


 Maximum index for augmentation-charges         4159 (set IRDMAX)


--------------------------------------------------------------------------------------------------------


 First call to EWALD:  gamma=   0.211
 Maximum number of real-space cells 3x 3x 3
 Maximum number of reciprocal cells 3x 3x 3

    FEWALD:  VPU time    0.00: CPU time    0.00


----------------------------------------- Iteration    1(   1)  ---------------------------------------


    POTLOK:  VPU time    0.40: CPU time    0.40
    SETDIJ:  VPU time    0.02: CPU time    0.02
    EDDAV :  VPU time  232.81: CPU time  232.75
    DOS   :  VPU time    0.00: CPU time   -0.00
    ------------------------------------------
      LOOP:  VPU time  233.24: CPU time  233.18

 eigenvalue-minimisations  : 26656
 total energy-change (2. order) : 0.1158987E+03  (-0.3201814E+04)
 number of electron   96.0000000 magnetization 
 augmentation part    96.0000000 magnetization 

 Free energy of the ion-electron system (eV)
  ---------------------------------------------------
  alpha Z        PSCENC =        -5.80791868
  Ewald energy   TEWEN  =     -2264.22495736
  -1/2 Hartree   DENC   =        -5.08689961
  -V(xc)+E(xc)   XCENC  =      -846.12864639
  PAW double counting   =      1137.73615723     -115.16745734
  entropy T*S    EENTRO =        -0.00048171
  eigenvalues    EBANDS =       501.34974800
  atomic energy  EATOM  =      1713.22913220
  ---------------------------------------------------
  free energy    TOTEN  =       115.89867634 eV

  energy without entropy =      115.89915804  energy(sigma->0) =      115.89891719


--------------------------------------------------------------------------------------------------------




----------------------------------------- Iteration    1(   2)  ---------------------------------------


    EDDAV :  VPU time  263.84: CPU time  263.90
    DOS   :  VPU time    0.00: CPU time   -0.00
    ------------------------------------------
      LOOP:  VPU time  263.87: CPU time  263.92

 eigenvalue-minimisations  : 31448
 total energy-change (2. order) :-0.2212713E+03  (-0.2066249E+03)
 number of electron   96.0000000 magnetization 
 augmentation part    96.0000000 magnetization 

 Free energy of the ion-electron system (eV)
  ---------------------------------------------------
  alpha Z        PSCENC =        -5.80791868
  Ewald energy   TEWEN  =     -2264.22495736
  -1/2 Hartree   DENC   =        -5.08689961
  -V(xc)+E(xc)   XCENC  =      -846.12864639
  PAW double counting   =      1137.73615723     -115.16745734
  entropy T*S    EENTRO =        -0.00063158
  eigenvalues    EBANDS =       280.07857456
  atomic energy  EATOM  =      1713.22913220
  ---------------------------------------------------
  free energy    TOTEN  =      -105.37264698 eV

  energy without entropy =     -105.37201540  energy(sigma->0) =     -105.37233119


--------------------------------------------------------------------------------------------------------




----------------------------------------- Iteration    1(   3)  ---------------------------------------


    EDDAV :  VPU time  273.63: CPU time  273.55
    DOS   :  VPU time    0.00: CPU time   -0.00
    ------------------------------------------
      LOOP:  VPU time  273.65: CPU time  273.58

 eigenvalue-minimisations  : 33108
 total energy-change (2. order) :-0.1330387E+02  (-0.1260333E+02)
 number of electron   96.0000000 magnetization 
 augmentation part    96.0000000 magnetization 

 Free energy of the ion-electron system (eV)
  ---------------------------------------------------
  alpha Z        PSCENC =        -5.80791868
  Ewald energy   TEWEN  =     -2264.22495736
  -1/2 Hartree   DENC   =        -5.08689961
  -V(xc)+E(xc)   XCENC  =      -846.12864639
  PAW double counting   =      1137.73615723     -115.16745734
  entropy T*S    EENTRO =        -0.00068332
  eigenvalues    EBANDS =       266.77476056
  atomic energy  EATOM  =      1713.22913220
  ---------------------------------------------------
  free energy    TOTEN  =      -118.67651272 eV

  energy without entropy =     -118.67582939  energy(sigma->0) =     -118.67617105


--------------------------------------------------------------------------------------------------------




----------------------------------------- Iteration    1(   4)  ---------------------------------------


    EDDAV :  VPU time  264.52: CPU time  264.46
    DOS   :  VPU time    0.00: CPU time   -0.00
    ------------------------------------------
      LOOP:  VPU time  264.55: CPU time  264.48

 eigenvalue-minimisations  : 31620
 total energy-change (2. order) :-0.3011044E+00  (-0.2974560E+00)
 number of electron   96.0000000 magnetization 
 augmentation part    96.0000000 magnetization 

 Free energy of the ion-electron system (eV)
  ---------------------------------------------------
  alpha Z        PSCENC =        -5.80791868
  Ewald energy   TEWEN  =     -2264.22495736
  -1/2 Hartree   DENC   =        -5.08689961
  -V(xc)+E(xc)   XCENC  =      -846.12864639
  PAW double counting   =      1137.73615723     -115.16745734
  entropy T*S    EENTRO =        -0.00068922
  eigenvalues    EBANDS =       266.47366202
  atomic energy  EATOM  =      1713.22913220
  ---------------------------------------------------
  free energy    TOTEN  =      -118.97761715 eV

  energy without entropy =     -118.97692794  energy(sigma->0) =     -118.97727254


--------------------------------------------------------------------------------------------------------




----------------------------------------- Iteration    1(   5)  ---------------------------------------


    EDDAV :  VPU time  265.77: CPU time  265.70
    DOS   :  VPU time    0.00: CPU time   -0.00
    CHARGE:  VPU time   14.67: CPU time   14.67
    MIXING:  VPU time    0.01: CPU time    0.01
    ------------------------------------------
      LOOP:  VPU time  280.48: CPU time  280.40

 eigenvalue-minimisations  : 31632
 total energy-change (2. order) :-0.4159610E-02  (-0.4153503E-02)
 number of electron   96.0000002 magnetization 
 augmentation part    -1.2710865 magnetization 

 Broyden mixing:
  rms(total) = 0.50121E+00    rms(broyden)= 0.50121E+00
  rms(prec ) = 0.73106E+00
  weight for this iteration     100.00

 Free energy of the ion-electron system (eV)
  ---------------------------------------------------
  alpha Z        PSCENC =        -5.80791868
  Ewald energy   TEWEN  =     -2264.22495736
  -1/2 Hartree   DENC   =        -5.08689961
  -V(xc)+E(xc)   XCENC  =      -846.12864639
  PAW double counting   =      1137.73615723     -115.16745734
  entropy T*S    EENTRO =        -0.00069092
  eigenvalues    EBANDS =       266.46950411
  atomic energy  EATOM  =      1713.22913220
  ---------------------------------------------------
  free energy    TOTEN  =      -118.98177676 eV

  energy without entropy =     -118.98108584  energy(sigma->0) =     -118.98143130


--------------------------------------------------------------------------------------------------------




----------------------------------------- Iteration    1(   6)  ---------------------------------------


    POTLOK:  VPU time    0.39: CPU time    0.39
    SETDIJ:  VPU time    0.02: CPU time    0.02
    EDDAV :  VPU time  263.32: CPU time  263.24
    DOS   :  VPU time   -0.00: CPU time   -0.00
    CHARGE:  VPU time   15.12: CPU time   15.12
    MIXING:  VPU time    0.01: CPU time    0.01
    ------------------------------------------
      LOOP:  VPU time  278.88: CPU time  278.80

 eigenvalue-minimisations  : 30804
 total energy-change (2. order) : 0.3922665E+00  (-0.6763967E-02)
 number of electron   96.0000002 magnetization 
 augmentation part    -1.2913175 magnetization 

 Broyden mixing:
  rms(total) = 0.31075E+00    rms(broyden)= 0.31075E+00
  rms(prec ) = 0.45484E+00
  weight for this iteration     100.00

 eigenvalues of (default mixing * dielectric matrix)
  average eigenvalue GAMMA=   2.6217
  2.6217

 Free energy of the ion-electron system (eV)
  ---------------------------------------------------
  alpha Z        PSCENC =        -5.80791868
  Ewald energy   TEWEN  =     -2264.22495736
  -1/2 Hartree   DENC   =        -3.83051253
  -V(xc)+E(xc)   XCENC  =      -845.29786111
  PAW double counting   =      1134.76509270     -112.09732925
  entropy T*S    EENTRO =        -0.00068433
  eigenvalues    EBANDS =       264.67552806
  atomic energy  EATOM  =      1713.22913220
  ---------------------------------------------------
  free energy    TOTEN  =      -118.58951030 eV

  energy without entropy =     -118.58882597  energy(sigma->0) =     -118.58916813


--------------------------------------------------------------------------------------------------------




----------------------------------------- Iteration    1(   7)  ---------------------------------------


    POTLOK:  VPU time    0.40: CPU time    0.40
    SETDIJ:  VPU time    0.02: CPU time    0.02
    EDDAV :  VPU time  250.77: CPU time  250.80
    DOS   :  VPU time    0.00: CPU time   -0.00
    CHARGE:  VPU time   15.13: CPU time   15.13
    MIXING:  VPU time    0.01: CPU time    0.01
    ------------------------------------------
      LOOP:  VPU time  266.35: CPU time  266.39

 eigenvalue-minimisations  : 29500
 total energy-change (2. order) : 0.2835185E+00  (-0.1967535E-01)
 number of electron   96.0000002 magnetization 
 augmentation part    -1.3289323 magnetization 

 Broyden mixing:
  rms(total) = 0.13579E-01    rms(broyden)= 0.13579E-01
  rms(prec ) = 0.16185E-01
  weight for this iteration     100.00

 eigenvalues of (default mixing * dielectric matrix)
  average eigenvalue GAMMA=   2.5051
  2.5051  2.5051

 Free energy of the ion-electron system (eV)
  ---------------------------------------------------
  alpha Z        PSCENC =        -5.80791868
  Ewald energy   TEWEN  =     -2264.22495736
  -1/2 Hartree   DENC   =        -3.13668780
  -V(xc)+E(xc)   XCENC  =      -843.51646219
  PAW double counting   =      1130.43401724     -107.66552883
  entropy T*S    EENTRO =        -0.00060994
  eigenvalues    EBANDS =       262.38302356
  atomic energy  EATOM  =      1713.22913220
  ---------------------------------------------------
  free energy    TOTEN  =      -118.30599179 eV

  energy without entropy =     -118.30538185  energy(sigma->0) =     -118.30568682


[...]
     64       8.7318      0.00000
     65       9.8462      0.00000
     66       9.8463      0.00000
     67       9.8463      0.00000
     68       9.8464      0.00000

 k-point 194 :       0.3333    0.5000    0.5000
  band No.  band energies     occupation 
      1      -2.2341      2.00000
      2      -2.2340      2.00000
      3      -2.2340      2.00000
      4      -2.2340      2.00000
      5      -1.5415      2.00000
      6      -1.5415      2.00000
      7      -1.5415      2.00000
      8      -1.5415      2.00000
      9       1.1977      2.00000
     10       1.1977      2.00000
     11       1.1977      2.00000
     12       1.1977      2.00000
     13       1.8725      2.00000
     14       1.8725      2.00000
     15       1.8725      2.00000
     16       1.8725      2.00000
     17       1.8725      2.00000
     18       1.8725      2.00000
     19       1.8725      2.00000
     20       1.8725      2.00000
     21       2.5472      2.00000
     22       2.5472      2.00000
     23       2.5472      2.00000
     24       2.5472      2.00000
     25       2.5472      2.00000
     26       2.5472      2.00000
     27       2.5472      2.00000
     28       2.5472      2.00000
     29       3.2089      2.00000
     30       3.2089      2.00000
     31       3.2089      2.00000
     32       3.2090      2.00000
     33       5.2189      2.00000
     34       5.2189      2.00000
     35       5.2189      2.00000
     36       5.2189      2.00000
     37       5.2189      2.00000
     38       5.2189      2.00000
     39       5.2190      2.00000
     40       5.2190      2.00000
     41       5.8761      2.00000
     42       5.8761      2.00000
     43       5.8761      2.00000
     44       5.8761      2.00000
     45       6.5363      2.00000
     46       6.5363      2.00000
     47       6.5363      2.00000
     48       6.5363      2.00000
     49       7.1791      0.00000
     50       7.1791      0.00000
     51       7.1791      0.00000
     52       7.1791      0.00000
     53       7.1791      0.00000
     54       7.1791      0.00000
     55       7.1792      0.00000
     56       7.1792      0.00000
     57       8.6512      0.00000
     58       8.6512      0.00000
     59       8.6512      0.00000
     60       8.6512      0.00000
     61       9.1504      0.00000
     62       9.1504      0.00000
     63       9.1504      0.00000
     64       9.1504      0.00000
     65       9.9409      0.00000
     66       9.9409      0.00000
     67       9.9409      0.00000
     68       9.9410      0.00000

 k-point 195 :       0.4167    0.5000    0.5000
  band No.  band energies     occupation 
      1      -2.1040      2.00000
      2      -2.1040      2.00000
      3      -2.1040      2.00000
      4      -2.1040      2.00000
      5      -1.7576      2.00000
      6      -1.7576      2.00000
      7      -1.7576      2.00000
      8      -1.7576      2.00000
      9       1.6628      2.00000
     10       1.6629      2.00000
     11       1.6629      2.00000
     12       1.6629      2.00000
     13       1.9991      2.00000
     14       1.9991      2.00000
     15       1.9991      2.00000
     16       1.9992      2.00000
     17       1.9992      2.00000
     18       1.9992      2.00000
     19       1.9992      2.00000
     20       1.9992      2.00000
     21       2.3366      2.00000
     22       2.3366      2.00000
     23       2.3366      2.00000
     24       2.3366      2.00000
     25       2.3366      2.00000
     26       2.3367      2.00000
     27       2.3367      2.00000
     28       2.3367      2.00000
     29       2.6698      2.00000
     30       2.6698      2.00000
     31       2.6698      2.00000
     32       2.6699      2.00000
     33       5.6726      2.00000
     34       5.6726      2.00000
     35       5.6726      2.00000
     36       5.6726      2.00000
     37       5.6726      2.00000
     38       5.6726      2.00000
     39       5.6727      2.00000
     40       5.6727      2.00000
     41       6.0000      2.00000
     42       6.0000      2.00000
     43       6.0000      2.00000
     44       6.0000      2.00000
     45       6.3302      2.00000
     46       6.3302      2.00000
     47       6.3302      2.00000
     48       6.3302      2.00000
     49       6.6542      2.00000
     50       6.6542      2.00000
     51       6.6542      2.00000
     52       6.6542      2.00000
     53       6.6542      2.00000
     54       6.6543      2.00000
     55       6.6543      2.00000
     56       6.6543      2.00000
     57       9.4174      0.00000
     58       9.4174      0.00000
     59       9.4174      0.00000
     60       9.4174      0.00000
     61       9.5942      0.00000
     62       9.5942      0.00000
     63       9.5942      0.00000
     64       9.5942      0.00000
     65      10.0622      0.00000
     66      10.0622      0.00000
     67      10.0623      0.00000
     68      10.0623      0.00000

 k-point 196 :       0.5000    0.5000    0.5000
  band No.  band energies     occupation 
      1      -1.9496      2.00000
      2      -1.9456      2.00000
      3      -1.9456      2.00000
      4      -1.9452      2.00000
      5      -1.9451      2.00000
      6      -1.9447      2.00000
      7      -1.9447      2.00000
      8      -1.9407      2.00000
      9       2.1439      2.00000
     10       2.1502      2.00000
     11       2.1502      2.00000
     12       2.1533      2.00000
     13       2.1535      2.00000
     14       2.1535      2.00000
     15       2.1539      2.00000
     16       2.1539      2.00000
     17       2.1539      2.00000
     18       2.1539      2.00000
     19       2.1539      2.00000
     20       2.1539      2.00000
     21       2.1539      2.00000
     22       2.1540      2.00000
     23       2.1540      2.00000
     24       2.1540      2.00000
     25       2.1540      2.00000
     26       2.1540      2.00000
     27       2.1544      2.00000
     28       2.1544      2.00000
     29       2.1546      2.00000
     30       2.1576      2.00000
     31       2.1576      2.00000
     32       2.1639      2.00000
     33       6.1459      2.00000
     34       6.1459      2.00000
     35       6.1474      2.00000
     36       6.1496      2.00000
     37       6.1508      2.00000
     38       6.1512      2.00000
     39       6.1512      2.00000
     40       6.1512      2.00000
     41       6.1514      2.00000
     42       6.1514      2.00000
     43       6.1514      2.00000
     44       6.1514      2.00000
     45       6.1515      2.00000
     46       6.1515      2.00000
     47       6.1515      2.00000
     48       6.1515      2.00000
     49       6.1517      2.00000
     50       6.1517      2.00000
     51       6.1517      2.00000
     52       6.1521      2.00000
     53       6.1533      2.00000
     54       6.1555      2.00000
     55       6.1570      2.00000
     56       6.1570      2.00000
     57      10.0610      0.00000
     58      10.0610      0.00000
     59      10.0612      0.00000
     60      10.0617      0.00000
     61      10.0630      0.00000
     62      10.0637      0.00000
     63      10.0638      0.00000
     64      10.0638      0.00000
     65      10.2073      0.00000
     66      10.2086      0.00000
     67      10.2098      0.00000
     68      10.2104      0.00000


--------------------------------------------------------------------------------------------------------


 soft charge-density along one line, spin component           1
         0         1         2         3         4         5         6         7         8         9
 total charge-density along one line
 
 pseudopotential strength for first ion, spin component:           1
  8.481  -0.004  -0.000  -0.000  -0.000  -0.000  -0.000  -0.000
 -0.004   0.000  -0.000  -0.000  -0.000   0.000   0.000   0.000
 -0.000  -0.000   1.983   0.000   0.000  -0.023  -0.000  -0.000
 -0.000  -0.000   0.000   1.983  -0.000  -0.000  -0.023   0.000
 -0.000  -0.000   0.000  -0.000   1.983  -0.000   0.000  -0.023
 -0.000   0.000  -0.023  -0.000  -0.000  -0.013  -0.000  -0.000
 -0.000   0.000  -0.000  -0.023   0.000  -0.000  -0.013   0.000
 -0.000   0.000  -0.000   0.000  -0.023  -0.000   0.000  -0.013
 total augmentation occupancy for first ion, spin component:           1
  1.380  -0.351  -0.000   0.000   0.001   0.000  -0.000  -0.001
 -0.351   0.365   0.000   0.000  -0.003   0.000  -0.000   0.001
 -0.000   0.000   0.641   0.001   0.006  -0.121  -0.001  -0.001
  0.000   0.000   0.001   0.654  -0.005  -0.001  -0.120  -0.000
  0.001  -0.003   0.006  -0.005   0.648  -0.001  -0.000  -0.120
  0.000   0.000  -0.121  -0.001  -0.001   0.026   0.000   0.000
 -0.000  -0.000  -0.001  -0.120  -0.000   0.000   0.026   0.000
 -0.001   0.001  -0.001  -0.000  -0.120   0.000   0.000   0.026


------------------------ aborting loop because EDIFF is reached ----------------------------------------




--------------------------------------------------------------------------------------------------------


    CHARGE:  VPU time    8.67: CPU time    8.66
    FORLOC:  VPU time    0.07: CPU time    0.07
    FORNL :  VPU time   64.32: CPU time   64.29
    STRESS:  VPU time  121.46: CPU time  121.40
    FORCOR:  VPU time    0.36: CPU time    0.37
    FORHAR:  VPU time    0.11: CPU time    0.11
    MIXING:  VPU time    0.01: CPU time    0.01


--------------------------------------------------------------------------------------------------------



  FREE ENERGIE OF THE ION-ELECTRON SYSTEM (eV)
  ---------------------------------------------------
  free  energy   TOTEN  =      -118.305915 eV

  energy  without entropy=     -118.305311  energy(sigma->0) =     -118.305613
 

  FORCE on cell =-STRESS in cart. coord.  units (eV/reduce length):
  Direction    X        Y        Z        XY       YZ       ZX
  --------------------------------------------------------------------------------------
  Alpha Z     -5.81     -5.81     -5.81
  Ewald     -754.75   -754.74   -754.74     -0.00      0.00      0.00
  Hartree      1.07      1.07      1.07     -0.00     -0.00     -0.00
  E(xc)     -264.79   -264.79   -264.79     -0.00      0.00     -0.00
  Local       -5.86     -5.87     -5.87      0.00     -0.00      0.00
  n-local    593.37    594.06    592.68     -0.34     -0.08      0.19
  augment    -35.58    -35.58    -35.58      0.00      0.00      0.00
  Kinetic    447.08    439.46    454.70      5.37      0.73     -3.92
  -------------------------------------------------------------------------------------
  Total      -25.27    -25.27    -25.27     -0.00      0.00      0.00
  in kB      -68.36    -68.36    -68.36     -0.00      0.00      0.00
  external pressure =      -68.36 kB  Pullay stress =        0.00 kB


 VOLUME and BASIS-vectors are now :
 -----------------------------------------------------------------------------
  energy-cutoff  :      500.00
  volume of cell :      592.20
      direct lattice vectors                 reciprocal lattice vectors
     8.397597249  0.000000000  0.000000000     0.119081681  0.000000000  0.000000000
     0.000000000  8.397597249  0.000000000     0.000000000  0.119081681  0.000000000
     0.000000000  0.000000000  8.397597249     0.000000000  0.000000000  0.119081681

  length of vectors
     8.397597249  8.397597249  8.397597249     0.119081681  0.119081681  0.119081681


 FORCES acting on ions
    electron-ion (+dipol)            ewald-force                    non-local-force                 convergence-correction
 -----------------------------------------------------------------------------------------------
   0.341E+00 -.912E-14 -.114E-07   -.284E+00 0.222E-15 -.261E-14   -.851E-01 -.280E-19 -.456E-19   0.493E-08 -.602E-14 -.742E-14
   -.778E-01 -.706E-13 0.820E-13   0.750E-01 0.000E+00 -.541E-14   0.439E-02 0.358E-19 0.132E-19   -.653E-07 -.835E-14 -.616E-14
   0.241E-01 -.406E-14 -.185E-13   -.237E-01 0.155E-14 -.186E-14   -.566E-03 -.196E-19 -.474E-20   -.103E-05 0.609E-14 -.552E-14
   -.182E-01 -.148E-12 -.335E-12   0.187E-01 0.155E-14 -.186E-14   0.936E-04 -.967E-20 -.114E-19   0.113E-05 0.833E-14 -.412E-14
   0.241E-01 -.412E-13 0.653E-14   -.237E-01 0.000E+00 -.199E-14   -.566E-03 0.804E-19 -.212E-19   -.102E-05 -.273E-14 0.738E-14
   -.182E-01 -.374E-12 0.442E-13   0.187E-01 0.000E+00 -.199E-14   0.936E-04 0.258E-19 -.237E-19   0.112E-05 -.397E-14 0.618E-14
   0.941E-02 0.408E-13 -.169E-14   -.980E-02 0.178E-14 -.155E-14   0.515E-03 -.961E-20 -.696E-20   -.353E-06 0.279E-14 0.549E-14
   -.855E-02 0.312E-12 0.248E-13   0.917E-02 0.533E-14 -.510E-14   -.108E-02 -.166E-19 -.557E-20   0.473E-06 0.395E-14 0.413E-14
   0.431E-01 -.192E-03 0.192E-03   -.448E-01 0.168E-03 -.168E-03   0.425E-03 0.350E-04 -.350E-04   -.657E-06 -.953E-08 0.952E-08
   -.262E-01 0.656E-04 -.656E-04   0.252E-01 -.502E-04 0.502E-04   0.459E-03 -.136E-04 0.136E-04   0.726E-06 -.257E-08 0.258E-08
   0.431E-01 0.192E-03 0.192E-03   -.448E-01 -.168E-03 -.168E-03   0.425E-03 -.350E-04 -.350E-04   -.657E-06 0.953E-08 0.952E-08
   -.262E-01 -.656E-04 -.656E-04   0.252E-01 0.502E-04 0.502E-04   0.459E-03 0.136E-04 0.136E-04   0.726E-06 0.257E-08 0.258E-08
   0.431E-01 -.192E-03 -.192E-03   -.448E-01 0.168E-03 0.168E-03   0.425E-03 0.350E-04 0.350E-04   -.657E-06 -.953E-08 -.952E-08
   -.262E-01 0.656E-04 0.656E-04   0.252E-01 -.502E-04 -.502E-04   0.459E-03 -.136E-04 -.136E-04   0.726E-06 -.257E-08 -.258E-08
   0.431E-01 0.192E-03 -.192E-03   -.448E-01 -.168E-03 0.168E-03   0.425E-03 -.350E-04 0.350E-04   -.657E-06 0.953E-08 -.952E-08
   -.262E-01 -.656E-04 0.656E-04   0.252E-01 0.502E-04 -.502E-04   0.459E-03 0.136E-04 -.136E-04   0.726E-06 0.257E-08 -.258E-08
   -.424E-01 -.314E-14 0.750E-01   0.363E-01 0.555E-14 -.687E-01   0.103E-01 0.299E-21 -.103E-01   -.138E-07 -.513E-14 0.572E-06
   -.423E-01 0.246E-12 -.757E-01   0.360E-01 0.533E-14 0.693E-01   0.105E-01 -.106E-19 0.106E-01   -.126E-07 -.309E-14 -.542E-06
   -.669E-03 -.119E-13 0.584E-02   0.121E-02 0.311E-14 -.568E-02   -.576E-03 0.708E-20 0.438E-04   -.464E-07 0.510E-14 -.343E-06
   -.572E-03 0.639E-13 -.584E-02   0.110E-02 0.355E-14 0.569E-02   -.564E-03 0.878E-20 -.492E-04   -.621E-07 0.314E-14 0.325E-06
   -.424E-01 -.340E-14 -.750E-01   0.363E-01 0.577E-14 0.687E-01   0.103E-01 -.270E-21 0.103E-01   -.138E-07 -.691E-14 -.572E-06
   -.423E-01 -.618E-13 0.757E-01   0.360E-01 0.533E-14 -.693E-01   0.105E-01 0.498E-20 -.106E-01   -.126E-07 -.576E-14 0.542E-06
   -.669E-03 -.153E-13 -.584E-02   0.121E-02 0.311E-14 0.568E-02   -.576E-03 0.700E-20 -.438E-04   -.464E-07 0.690E-14 0.343E-06
   -.572E-03 -.216E-12 0.584E-02   0.110E-02 0.355E-14 -.569E-02   -.564E-03 0.445E-20 0.492E-04   -.621E-07 0.585E-14 -.325E-06
   -.424E-01 -.750E-01 0.870E-14   0.363E-01 0.687E-01 0.166E-14   0.103E-01 0.103E-01 0.304E-20   -.128E-07 -.576E-06 -.600E-14
   -.423E-01 0.757E-01 -.433E-12   0.360E-01 -.693E-01 0.103E-15   0.105E-01 -.106E-01 -.779E-20   -.116E-07 0.545E-06 -.785E-14
   -.424E-01 0.750E-01 0.730E-15   0.363E-01 -.687E-01 0.144E-14   0.103E-01 -.103E-01 -.330E-21   -.128E-07 0.576E-06 -.422E-14
   -.423E-01 -.757E-01 -.631E-14   0.360E-01 0.693E-01 0.366E-14   0.105E-01 0.106E-01 -.305E-20   -.116E-07 -.545E-06 -.517E-14
   -.669E-03 -.584E-02 -.321E-14   0.121E-02 0.568E-02 -.143E-14   -.576E-03 -.438E-04 -.904E-20   -.471E-07 0.340E-06 0.602E-14
   -.572E-03 0.584E-02 0.164E-12   0.110E-02 -.569E-02 0.701E-14   -.564E-03 0.492E-04 -.440E-20   -.628E-07 -.322E-06 0.781E-14
   -.669E-03 0.584E-02 0.348E-15   0.121E-02 -.568E-02 -.143E-14   -.576E-03 0.438E-04 0.529E-20   -.471E-07 -.340E-06 0.422E-14
   -.572E-03 -.584E-02 -.647E-14   0.110E-02 0.569E-02 0.346E-14   -.564E-03 -.492E-04 -.977E-21   -.628E-07 0.322E-06 0.512E-14
 -----------------------------------------------------------------------------------------------
   0.181E-05 -.583E-12 -.114E-07   -.225E-15 -.170E-14 -.232E-13   -.358E-05 0.173E-17 -.722E-18   -.213E-08 0.244E-16 0.319E-16
 
 
 POSITION                                       TOTAL-FORCE (eV/Angst)
 -----------------------------------------------------------------------------------
      2.10940      2.09940      0.00000        -0.027943     -0.000000     -0.000000
      6.29820      2.09940      0.00000         0.001589     -0.000000      0.000000
      2.09940      6.29820      0.00000        -0.000219      0.000000      0.000000
      6.29820      6.29820      0.00000         0.000531      0.000000      0.000000
      2.09940      2.09940      4.19880        -0.000219     -0.000000      0.000000
      6.29820      2.09940      4.19880         0.000531      0.000000      0.000000
      2.09940      6.29820      4.19880         0.000120      0.000000      0.000000
      6.29820      6.29820      4.19880        -0.000465     -0.000000      0.000000
      2.09940      0.00000      2.09940        -0.001288      0.000010     -0.000010
      6.29820      0.00000      2.09940        -0.000587      0.000002     -0.000002
      2.09940      4.19880      2.09940        -0.001288     -0.000010     -0.000010
      6.29820      4.19880      2.09940        -0.000587     -0.000002     -0.000002
      2.09940      0.00000      6.29820        -0.001288      0.000010      0.000010
      6.29820      0.00000      6.29820        -0.000587      0.000002      0.000002
      2.09940      4.19880      6.29820        -0.001288     -0.000010      0.000010
      6.29820      4.19880      6.29820        -0.000587     -0.000002      0.000002
      0.00000      2.09940      2.09940         0.004181     -0.000000     -0.004057
      4.19880      2.09940      2.09940         0.004287      0.000000      0.004200
      0.00000      6.29820      2.09940        -0.000038      0.000000      0.000199
      4.19880      6.29820      2.09940        -0.000037      0.000000     -0.000196
      0.00000      2.09940      6.29820         0.004181     -0.000000      0.004057
      4.19880      2.09940      6.29820         0.004287     -0.000000     -0.004200
      0.00000      6.29820      6.29820        -0.000038      0.000000     -0.000199
      4.19880      6.29820      6.29820        -0.000037      0.000000      0.000196
      0.00000      0.00000      0.00000         0.004181      0.004057      0.000000
      4.19880      0.00000      0.00000         0.004287     -0.004200     -0.000000
      0.00000      4.19880      0.00000         0.004181     -0.004057      0.000000
      4.19880      4.19880      0.00000         0.004287      0.004200      0.000000
      0.00000      0.00000      4.19880        -0.000038     -0.000199      0.000000
      4.19880      0.00000      4.19880        -0.000037      0.000196     -0.000000
      0.00000      4.19880      4.19880        -0.000038      0.000199      0.000000
      4.19880      4.19880      4.19880        -0.000037     -0.000196      0.000000
 -----------------------------------------------------------------------------------
    total drift:                               -0.000002     -0.000000     -0.000000


--------------------------------------------------------------------------------------------------------



 mean value of Nose-termostat <S>:     1.000 mean value of <T> :     0.000
 mean temperature <T/S>/<1/S>  :     0.000

     LOOP+:  VPU time 3773.33: CPU time 3772.55
  
  
 General timing and accounting informations for this job:
 ========================================================
  
                  Total CPU time used (sec):     3816.028
                            User time (sec):     3515.471
                          System time (sec):      300.557
                         Elapsed time (sec):     3815.244
  
                   Maximum memory used (kb):     4908512.
                   Average memory used (kb):           0.
  
                          Minor page faults:       964848
                          Major page faults:            0
                 Voluntary context switches:          920
