36   
2    

1    
  0.0068460131888027   0.0000192212820402   0.0072891517998363
  -0.0417528300   -0.0000307800   -0.0427322800
   0.0097564400   -0.0043300800    0.0024504800
   0.0096152400    0.0030985600    0.0024587300
   0.0037046800   -0.0078867600    0.0024513000
   0.0038114200    0.0064482400    0.0023293900
   0.0029681800   -0.0006081200    0.0015892000
   0.0037068900   -0.0001620700    0.0024423500
   0.0030996100   -0.0004270900    0.0015855200
   0.0037311700   -0.0012061000    0.0023290500
  -0.0011962200   -0.0007608900    0.0136956000
   0.0021110800    0.0003638100    0.0005401500
   0.0021589200   -0.0015079900    0.0005540400
   0.0011613400   -0.0003379500    0.0005451700
   0.0013185800   -0.0009060700    0.0005128000
   0.0002869300   -0.0006745000   -0.0005080600
   0.0011991200   -0.0019194900    0.0005419200
   0.0004084700   -0.0004667900   -0.0005096300
   0.0012257600    0.0009728100    0.0005198600
   0.0098885100   -0.0055680300    0.0094587200
  -0.0014307200    0.0002572600   -0.0008844100
  -0.0025809400   -0.0006463100   -0.0023231500
  -0.0006346500    0.0078364300    0.0036611000
  -0.0036583500   -0.0001571600   -0.0021319900
  -0.0013550600    0.0004713600   -0.0000475500
  -0.0007657100    0.0009351500   -0.0008226300
  -0.0006851000    0.0002358200   -0.0007626900
  -0.0021935000    0.0017405000   -0.0011669800
  -0.0027320200    0.0017409700   -0.0024267800
  -0.0013359500    0.0004039600   -0.0007939500
   0.0096668600    0.0063765300    0.0091559700
  -0.0005764400   -0.0064553400    0.0034506200
  -0.0016235100    0.0009977200   -0.0002200800
  -0.0034678800    0.0016896300   -0.0020329200
  -0.0008371500    0.0007754100   -0.0008724700
  -0.0008118800    0.0003029900   -0.0008658500
  -0.0021812800   -0.0005956500   -0.0011705300

1    
 -0.0068460131888027  -0.0000192212820402  -0.0072891517998363
   0.0435742400   -0.0012588700    0.0426979900
  -0.0076537400    0.0032113000   -0.0024532500
  -0.0077523400   -0.0042947600   -0.0024453300
  -0.0020036100    0.0063626900   -0.0024526000
  -0.0016494700   -0.0076499900   -0.0023167000
  -0.0010243800   -0.0004978200   -0.0015640300
  -0.0019617000   -0.0008436100   -0.0024611100
  -0.0008923100   -0.0003170000   -0.0015673700
  -0.0017748700    0.0001488800   -0.0023165600
   0.0031091000   -0.0003676200   -0.0136817400
  -0.0001711500   -0.0014790200   -0.0005571700
  -0.0001332300    0.0003398900   -0.0005433100
   0.0005388400   -0.0012293600   -0.0005524400
   0.0008179200   -0.0003448200   -0.0005189300
   0.0016666300   -0.0004318500    0.0005218000
   0.0005656500    0.0008810800   -0.0005561100
   0.0017892500   -0.0002246000    0.0005191800
   0.0007344100   -0.0020519400   -0.0005120600
  -0.0115056300    0.0064320200   -0.0090133800
  -0.0007379000    0.0004403900    0.0009129800
   0.0007516200    0.0016670300    0.0022173100
  -0.0013376400   -0.0064958500   -0.0034717700
   0.0014840000    0.0013954300    0.0021176000
  -0.0003099300    0.0010908400    0.0000543900
  -0.0012676500    0.0002209300    0.0008030200
  -0.0012446200    0.0008992500    0.0007455800
   0.0002956500   -0.0005605000    0.0011823300
   0.0008349200   -0.0006709500    0.0025056800
  -0.0008786000    0.0003003900    0.0007810700
  -0.0117690900   -0.0055814600   -0.0096027200
  -0.0013049200    0.0077952100   -0.0036297400
  -0.0005433600    0.0002476700    0.0002076100
   0.0018001800   -0.0001289100    0.0020284800
  -0.0012088100    0.0004084700    0.0008767700
  -0.0011086700    0.0008150900    0.0008882700
   0.0002711900    0.0017723500    0.0011562500
