<?xml version="1.0" encoding="ISO-8859-1"?>
<modeling>
 <generator>
  <i name="program" type="string">vasp</i>
  <i name="version" type="string">4.6.28 </i>
  <i name="subversion" type="string">25Jul05 complex  parallel</i>
  <i name="platform" type="string">LinuxIFC</i>
  <i name="date" type="string">2016 10 19</i>
  <i name="time" type="string">17:43:52</i>
 </generator>
 <incar>
  <i type="string" name="PREC">accurate</i>
  <i type="int" name="IALGO">    38</i>
  <i name="EDIFF">      0.00000001</i>
  <i type="int" name="IBRION">    -1</i>
  <i name="ENCUT">    500.00000000</i>
  <i type="logical" name="LREAL"> F  </i>
  <i type="int" name="ISMEAR">     0</i>
  <i name="SIGMA">      0.01000000</i>
  <i type="logical" name="LWAVE"> F  </i>
  <i type="logical" name="LCHARG"> F  </i>
 </incar>
 <kpoints>
  <generation param="Auto">
   <i name="subdivisionlength">     50.00000000</i>
   <v type="int" name="divisions">      13      13      13</v>
   <v name="usershift">      0.00000000      0.00000000      0.00000000</v>
   <v name="genvec1">      0.07692308      0.00000000      0.00000000</v>
   <v name="genvec2">      0.00000000      0.07692308      0.00000000</v>
   <v name="genvec3">      0.00000000      0.00000000      0.07692308</v>
   <v name="shift">      0.00000000      0.00000000      0.00000000</v>
  </generation>
  <varray name="kpointlist" >
   <v>       0.00000000      0.00000000      0.00000000</v>
   <v>       0.07692308      0.00000000      0.00000000</v>
   <v>       0.15384615      0.00000000      0.00000000</v>
   <v>       0.23076923      0.00000000      0.00000000</v>
   <v>       0.30769231      0.00000000      0.00000000</v>
   <v>       0.38461538      0.00000000      0.00000000</v>
   <v>       0.46153846      0.00000000      0.00000000</v>
   <v>       0.07692308      0.07692308      0.00000000</v>
   <v>       0.15384615      0.07692308      0.00000000</v>
   <v>       0.23076923      0.07692308      0.00000000</v>
   <v>       0.30769231      0.07692308      0.00000000</v>
   <v>       0.38461538      0.07692308      0.00000000</v>
   <v>       0.46153846      0.07692308      0.00000000</v>
   <v>       0.15384615      0.15384615      0.00000000</v>
   <v>       0.23076923      0.15384615      0.00000000</v>
   <v>       0.30769231      0.15384615      0.00000000</v>
   <v>       0.38461538      0.15384615      0.00000000</v>
   <v>       0.46153846      0.15384615      0.00000000</v>
   <v>       0.23076923      0.23076923      0.00000000</v>
   <v>       0.30769231      0.23076923      0.00000000</v>
   <v>       0.38461538      0.23076923      0.00000000</v>
   <v>       0.46153846      0.23076923      0.00000000</v>
   <v>       0.30769231      0.30769231      0.00000000</v>
   <v>       0.38461538      0.30769231      0.00000000</v>
   <v>       0.46153846      0.30769231      0.00000000</v>
   <v>       0.38461538      0.38461538      0.00000000</v>
   <v>       0.46153846      0.38461538      0.00000000</v>
   <v>       0.46153846      0.46153846      0.00000000</v>
   <v>       0.07692308      0.07692308      0.07692308</v>
   <v>       0.15384615      0.07692308      0.07692308</v>
   <v>       0.23076923      0.07692308      0.07692308</v>
   <v>       0.30769231      0.07692308      0.07692308</v>
   <v>       0.38461538      0.07692308      0.07692308</v>
   <v>       0.46153846      0.07692308      0.07692308</v>
   <v>       0.15384615      0.15384615      0.07692308</v>
   <v>       0.23076923      0.15384615      0.07692308</v>
   <v>       0.30769231      0.15384615      0.07692308</v>
   <v>       0.38461538      0.15384615      0.07692308</v>
   <v>       0.46153846      0.15384615      0.07692308</v>
   <v>       0.23076923      0.23076923      0.07692308</v>
   <v>       0.30769231      0.23076923      0.07692308</v>
   <v>       0.38461538      0.23076923      0.07692308</v>
   <v>       0.46153846      0.23076923      0.07692308</v>
   <v>       0.30769231      0.30769231      0.07692308</v>
   <v>       0.38461538      0.30769231      0.07692308</v>
   <v>       0.46153846      0.30769231      0.07692308</v>
   <v>       0.38461538      0.38461538      0.07692308</v>
   <v>       0.46153846      0.38461538      0.07692308</v>
   <v>       0.46153846      0.46153846      0.07692308</v>
   <v>       0.15384615      0.15384615      0.15384615</v>
   <v>       0.23076923      0.15384615      0.15384615</v>
   <v>       0.30769231      0.15384615      0.15384615</v>
   <v>       0.38461538      0.15384615      0.15384615</v>
   <v>       0.46153846      0.15384615      0.15384615</v>
   <v>       0.23076923      0.23076923      0.15384615</v>
   <v>       0.30769231      0.23076923      0.15384615</v>
   <v>       0.38461538      0.23076923      0.15384615</v>
   <v>       0.46153846      0.23076923      0.15384615</v>
   <v>       0.30769231      0.30769231      0.15384615</v>
   <v>       0.38461538      0.30769231      0.15384615</v>
   <v>       0.46153846      0.30769231      0.15384615</v>
   <v>       0.38461538      0.38461538      0.15384615</v>
   <v>       0.46153846      0.38461538      0.15384615</v>
   <v>       0.46153846      0.46153846      0.15384615</v>
   <v>       0.23076923      0.23076923      0.23076923</v>
   <v>       0.30769231      0.23076923      0.23076923</v>
   <v>       0.38461538      0.23076923      0.23076923</v>
   <v>       0.46153846      0.23076923      0.23076923</v>
   <v>       0.30769231      0.30769231      0.23076923</v>
   <v>       0.38461538      0.30769231      0.23076923</v>
   <v>       0.46153846      0.30769231      0.23076923</v>
   <v>       0.38461538      0.38461538      0.23076923</v>
   <v>       0.46153846      0.38461538      0.23076923</v>
   <v>       0.46153846      0.46153846      0.23076923</v>
   <v>       0.30769231      0.30769231      0.30769231</v>
   <v>       0.38461538      0.30769231      0.30769231</v>
   <v>       0.46153846      0.30769231      0.30769231</v>
   <v>       0.38461538      0.38461538      0.30769231</v>
   <v>       0.46153846      0.38461538      0.30769231</v>
   <v>       0.46153846      0.46153846      0.30769231</v>
   <v>       0.38461538      0.38461538      0.38461538</v>
   <v>       0.46153846      0.38461538      0.38461538</v>
   <v>       0.46153846      0.46153846      0.38461538</v>
   <v>       0.46153846      0.46153846      0.46153846</v>
  </varray>
  <varray name="weights" >
   <v>       0.00045517</v>
   <v>       0.00273100</v>
   <v>       0.00273100</v>
   <v>       0.00273100</v>
   <v>       0.00273100</v>
   <v>       0.00273100</v>
   <v>       0.00273100</v>
   <v>       0.00546199</v>
   <v>       0.01092399</v>
   <v>       0.01092399</v>
   <v>       0.01092399</v>
   <v>       0.01092399</v>
   <v>       0.01092399</v>
   <v>       0.00546199</v>
   <v>       0.01092399</v>
   <v>       0.01092399</v>
   <v>       0.01092399</v>
   <v>       0.01092399</v>
   <v>       0.00546199</v>
   <v>       0.01092399</v>
   <v>       0.01092399</v>
   <v>       0.01092399</v>
   <v>       0.00546199</v>
   <v>       0.01092399</v>
   <v>       0.01092399</v>
   <v>       0.00546199</v>
   <v>       0.01092399</v>
   <v>       0.00546199</v>
   <v>       0.00364133</v>
   <v>       0.01092399</v>
   <v>       0.01092399</v>
   <v>       0.01092399</v>
   <v>       0.01092399</v>
   <v>       0.01092399</v>
   <v>       0.01092399</v>
   <v>       0.02184797</v>
   <v>       0.02184797</v>
   <v>       0.02184797</v>
   <v>       0.02184797</v>
   <v>       0.01092399</v>
   <v>       0.02184797</v>
   <v>       0.02184797</v>
   <v>       0.02184797</v>
   <v>       0.01092399</v>
   <v>       0.02184797</v>
   <v>       0.02184797</v>
   <v>       0.01092399</v>
   <v>       0.02184797</v>
   <v>       0.01092399</v>
   <v>       0.00364133</v>
   <v>       0.01092399</v>
   <v>       0.01092399</v>
   <v>       0.01092399</v>
   <v>       0.01092399</v>
   <v>       0.01092399</v>
   <v>       0.02184797</v>
   <v>       0.02184797</v>
   <v>       0.02184797</v>
   <v>       0.01092399</v>
   <v>       0.02184797</v>
   <v>       0.02184797</v>
   <v>       0.01092399</v>
   <v>       0.02184797</v>
   <v>       0.01092399</v>
   <v>       0.00364133</v>
   <v>       0.01092399</v>
   <v>       0.01092399</v>
   <v>       0.01092399</v>
   <v>       0.01092399</v>
   <v>       0.02184797</v>
   <v>       0.02184797</v>
   <v>       0.01092399</v>
   <v>       0.02184797</v>
   <v>       0.01092399</v>
   <v>       0.00364133</v>
   <v>       0.01092399</v>
   <v>       0.01092399</v>
   <v>       0.01092399</v>
   <v>       0.02184797</v>
   <v>       0.01092399</v>
   <v>       0.00364133</v>
   <v>       0.01092399</v>
   <v>       0.01092399</v>
   <v>       0.00364133</v>
  </varray>
 </kpoints>
 <parameters>
  <separator name="general" >
   <i type="string" name="SYSTEM">unknown system</i>
   <i type="logical" name="LCOMPAT"> F  </i>
  </separator>
  <separator name="electronic" >
   <i type="string" name="PREC">accura</i>
   <i name="ENMAX">    500.00000000</i>
   <i name="ENAUG">    291.05200000</i>
   <i name="EDIFF">      0.00000001</i>
   <i type="int" name="IALGO">    38</i>
   <i type="int" name="IWAVPR">    10</i>
   <i type="int" name="NBANDS">    10</i>
   <i name="NELECT">     12.00000000</i>
   <separator name="electronic smearing" >
    <i type="int" name="ISMEAR">     0</i>
    <i name="SIGMA">      0.01000000</i>
   </separator>
   <separator name="electronic projectors" >
    <i type="logical" name="LREAL"> F  </i>
    <v name="ROPT">      0.00000000</v>
    <i type="int" name="LMAXPAW">  -100</i>
    <i type="int" name="LMAXMIX">     2</i>
   </separator>
   <separator name="electronic startup" >
    <i type="int" name="ISTART">     0</i>
    <i type="int" name="ICHARG">     2</i>
    <i type="int" name="INIWAV">     1</i>
   </separator>
   <separator name="electronic spin" >
    <i type="int" name="ISPIN">     1</i>
    <i type="logical" name="LNONCOLLINEAR"> F  </i>
    <v name="MAGMOM">      1.00000000      1.00000000      1.00000000      1.00000000</v>
    <i name="NUPDOWN">     -1.00000000</i>
    <i type="logical" name="LSORBIT"> F  </i>
    <v name="SAXIS">      0.00000000      0.00000000      1.00000000</v>
    <i type="logical" name="LSPIRAL"> F  </i>
    <v name="QSPIRAL">      0.00000000      0.00000000      0.00000000</v>
    <i type="logical" name="LZEROZ"> F  </i>
   </separator>
   <separator name="electronic exchange-correlation" >
    <i type="string" name="GGA">--</i>
    <i type="int" name="VOSKOWN">     0</i>
    <i type="logical" name="LASPH"> F  </i>
    <i type="logical" name="LMETAGGA"> F  </i>
    <i type="string" name="GGA2">--</i>
   </separator>
   <separator name="electronic convergence" >
    <i type="int" name="NELM">    60</i>
    <i type="int" name="NELMDL">     0</i>
    <i type="int" name="NELMIN">     2</i>
    <i name="ENINI">    500.00000000</i>
    <separator name="electronic convergence detail" >
     <i type="logical" name="LDIAG"> T  </i>
     <i name="WEIMIN">      0.00000000</i>
     <i name="EBREAK">      0.00000000</i>
     <i name="DEPER">      0.30000000</i>
     <i type="int" name="NRMM">     4</i>
     <i name="TIME">      0.10000000</i>
    </separator>
   </separator>
   <separator name="electronic mixer" >
    <i name="AMIX">      0.40000000</i>
    <i name="BMIX">      1.00000000</i>
    <i name="AMIN">      0.10000000</i>
    <i name="AMIX_MAG">      1.60000000</i>
    <i name="BMIX_MAG">      1.00000000</i>
    <separator name="electronic mixer details" >
     <i type="int" name="IMIX">     4</i>
     <i type="int" name="MAXMIX">   -45</i>
     <i name="WC">    100.00000000</i>
     <i type="int" name="INIMIX">     1</i>
     <i type="int" name="MIXPRE">     1</i>
     <i type="int" name="MREMOVE">     5</i>
    </separator>
   </separator>
   <separator name="electronic dipolcorrection" >
    <i type="int" name="IDIPOL">     0</i>
    <i type="logical" name="LDIPOL"> F  </i>
    <v name="DIPOL">   -100.00000000</v>
    <i name="EFIELD">      0.00000000</i>
   </separator>
  </separator>
  <separator name="grids" >
   <i type="int" name="NGX">    30</i>
   <i type="int" name="NGY">    30</i>
   <i type="int" name="NGZ">    30</i>
   <i type="int" name="NGXF">    60</i>
   <i type="int" name="NGYF">    60</i>
   <i type="int" name="NGZF">    60</i>
   <i type="logical" name="ADDGRID"> F  </i>
  </separator>
  <separator name="ionic" >
   <i type="int" name="NSW">     0</i>
   <i type="int" name="IBRION">    -1</i>
   <i type="int" name="ISIF">     2</i>
   <i name="PSTRESS">      0.00000000</i>
   <i name="EDIFFG">      0.00000010</i>
   <i type="int" name="NFREE">     0</i>
   <i name="POTIM">      0.50000000</i>
   <i name="SMASS">     -3.00000000</i>
  </separator>
  <separator name="ionic md" >
   <i name="TEBEG">      0.00010000</i>
   <i name="TEEND">      0.00010000</i>
   <i type="int" name="NBLOCK">     1</i>
   <i type="int" name="KBLOCK">     1</i>
   <i type="int" name="NPACO">   256</i>
   <i name="APACO">     16.00000000</i>
  </separator>
  <separator name="symmetry" >
   <i type="int" name="ISYM">     2</i>
   <i name="SYMPREC">      0.00001000</i>
  </separator>
  <separator name="dos" >
   <i type="logical" name="LORBIT"> F  </i>
   <v name="RWIGS">     -1.00000000</v>
   <i type="int" name="NEDOS">   301</i>
   <i name="EMIN">     10.00000000</i>
   <i name="EMAX">    -10.00000000</i>
  </separator>
  <separator name="writing" >
   <i type="int" name="NWRITE">     2</i>
   <i type="logical" name="LWAVE"> F  </i>
   <i type="logical" name="LCHARG"> F  </i>
   <i type="logical" name="LPARD"> F  </i>
   <i type="logical" name="LVTOT"> F  </i>
   <i type="logical" name="LELF"> F  </i>
   <i type="logical" name="LOPTICS"> F  </i>
   <i name="STM">      0.00000000</i>
  </separator>
  <separator name="performance" >
   <i type="int" name="NPAR">     8</i>
   <i type="int" name="NSIM">     4</i>
   <i type="int" name="NBLK">   160</i>
   <i type="logical" name="LPLANE"> T  </i>
   <i type="logical" name="LCRITICAL_MEM"> F  </i>
   <i type="logical" name="LSCALAPACK"> F  </i>
   <i type="logical" name="LSCALU"> F  </i>
   <i type="logical" name="LASYNC"> F  </i>
  </separator>
  <separator name="miscellaneous" >
   <i type="int" name="IDIOT">     3</i>
   <i type="logical" name="LMUSIC"> F  </i>
   <v name="POMASS">     26.98200000</v>
   <i type="logical" name="LCORR"> T  </i>
  </separator>
  <i type="logical" name="LREAL_COMPAT"> F  </i>
  <i type="logical" name="GGA_COMPAT"> T  </i>
  <i type="logical" name="LBERRY"> F  </i>
  <i type="int" name="ICORELEVEL">     0</i>
  <i type="logical" name="LDAU"> F  </i>
  <i type="int" name="I_CONSTRAINED_M">     0</i>
 </parameters>
 <atominfo>
  <atoms>       4</atoms>
  <types>       1</types>
  <array name="atoms" >
   <dimension dim="1">ion</dimension>
   <field type="string">element</field>
   <field type="int">atomtype</field>
   <set>
    <rc><c>Al</c><c>   1</c></rc>
    <rc><c>Al</c><c>   1</c></rc>
    <rc><c>Al</c><c>   1</c></rc>
    <rc><c>Al</c><c>   1</c></rc>
   </set>
  </array>
  <array name="atomtypes" >
   <dimension dim="1">type</dimension>
   <field type="int">atomspertype</field>
   <field type="string">element</field>
   <field>mass</field>
   <field>valence</field>
   <field type="string">pseudopotential</field>
   <set>
    <rc><c>   4</c><c>Al</c><c>     26.98200000</c><c>      3.00000000</c><c> PAW_PBE Al 04Jan2001                   </c></rc>
   </set>
  </array>
 </atominfo>
 <structure name="initialpos" >
  <crystal>
   <varray name="basis" >
    <v>       3.91618718      0.00000000      0.00000000</v>
    <v>       0.00000000      3.91618718      0.00000000</v>
    <v>       0.00000000      0.00000000      3.91618718</v>
   </varray>
   <i name="volume">     60.06069089</i>
   <varray name="rec_basis" >
    <v>       0.25535041      0.00000000      0.00000000</v>
    <v>       0.00000000      0.25535041      0.00000000</v>
    <v>       0.00000000      0.00000000      0.25535041</v>
   </varray>
  </crystal>
  <varray name="positions" >
   <v>       0.50000000      0.50000000      0.00000000</v>
   <v>       0.50000000      0.00000000      0.50000000</v>
   <v>       0.00000000      0.50000000      0.50000000</v>
   <v>       0.00000000      0.00000000      0.00000000</v>
  </varray>
 </structure>
 <calculation>
  <scstep>
   <time name="dav">    0.80    0.83</time>
   <time name="total">    0.82    0.85</time>
   <energy>
    <i name="alphaZ">     -0.89477812</i>
    <i name="ewald">   -303.45298716</i>
    <i name="hartreedc">     -0.29941578</i>
    <i name="XCdc">   -104.26831635</i>
    <i name="pawpsdc">    142.21701965</i>
    <i name="pawaedc">    -14.39593217</i>
    <i name="eentropy">     -0.00012129</i>
    <i name="bandstr">     73.28573117</i>
    <i name="atom">    214.15364153</i>
    <i name="e_fr_energy">      6.34484147</i>
    <i name="e_wo_entrp">      6.34496276</i>
    <i name="e_0_energy">      6.34490212</i>
   </energy>
  </scstep>
  <scstep>
   <time name="dav">    1.00    1.00</time>
   <time name="total">    1.00    1.00</time>
   <energy>
    <i name="e_fr_energy">    -14.30752970</i>
    <i name="e_wo_entrp">    -14.30743349</i>
    <i name="e_0_energy">    -14.30748159</i>
   </energy>
  </scstep>
  <scstep>
   <time name="dav">    0.96    0.96</time>
   <time name="total">    0.96    0.96</time>
   <energy>
    <i name="e_fr_energy">    -14.93130616</i>
    <i name="e_wo_entrp">    -14.93119716</i>
    <i name="e_0_energy">    -14.93125166</i>
   </energy>
  </scstep>
  <scstep>
   <time name="dav">    0.93    0.93</time>
   <time name="total">    0.94    0.94</time>
   <energy>
    <i name="e_fr_energy">    -14.93512125</i>
    <i name="e_wo_entrp">    -14.93501176</i>
    <i name="e_0_energy">    -14.93506651</i>
   </energy>
  </scstep>
  <scstep>
   <time name="dav">    0.96    0.96</time>
   <time name="total">    1.00    1.00</time>
   <energy>
    <i name="e_fr_energy">    -14.93516753</i>
    <i name="e_wo_entrp">    -14.93505804</i>
    <i name="e_0_energy">    -14.93511279</i>
   </energy>
  </scstep>
  <scstep>
   <time name="dav">    0.89    0.89</time>
   <time name="total">    0.95    0.95</time>
   <energy>
    <i name="e_fr_energy">    -14.87773728</i>
    <i name="e_wo_entrp">    -14.87762810</i>
    <i name="e_0_energy">    -14.87768269</i>
   </energy>
  </scstep>
  <scstep>
   <time name="dav">    0.84    0.84</time>
   <time name="total">    0.89    0.90</time>
   <energy>
    <i name="e_fr_energy">    -14.83606589</i>
    <i name="e_wo_entrp">    -14.83595473</i>
    <i name="e_0_energy">    -14.83601031</i>
   </energy>
  </scstep>
  <scstep>
   <time name="dav">    1.03    1.03</time>
   <time name="total">    1.08    1.08</time>
   <energy>
    <i name="e_fr_energy">    -14.83610299</i>
    <i name="e_wo_entrp">    -14.83599161</i>
    <i name="e_0_energy">    -14.83604730</i>
   </energy>
  </scstep>
  <scstep>
   <time name="dav">    0.95    0.95</time>
   <time name="total">    1.01    1.01</time>
   <energy>
    <i name="e_fr_energy">    -14.83610668</i>
    <i name="e_wo_entrp">    -14.83599516</i>
    <i name="e_0_energy">    -14.83605092</i>
   </energy>
  </scstep>
  <scstep>
   <time name="dav">    1.02    1.02</time>
   <time name="total">    1.07    1.08</time>
   <energy>
    <i name="e_fr_energy">    -14.83610607</i>
    <i name="e_wo_entrp">    -14.83599455</i>
    <i name="e_0_energy">    -14.83605031</i>
   </energy>
  </scstep>
  <scstep>
   <time name="dav">    0.71    0.71</time>
   <time name="total">    0.76    0.76</time>
   <energy>
    <i name="e_fr_energy">    -14.83610594</i>
    <i name="e_wo_entrp">    -14.83599442</i>
    <i name="e_0_energy">    -14.83605018</i>
   </energy>
  </scstep>
  <scstep>
   <time name="dav">    0.64    0.64</time>
   <time name="total">    0.66    0.66</time>
   <energy>
    <i name="alphaZ">     -0.89477812</i>
    <i name="ewald">   -303.45298716</i>
    <i name="hartreedc">     -0.49330314</i>
    <i name="XCdc">   -103.74779330</i>
    <i name="pawpsdc">    144.00580225</i>
    <i name="pawaedc">    -16.30489428</i>
    <i name="eentropy">     -0.00011152</i>
    <i name="bandstr">     51.89831780</i>
    <i name="atom">    214.15364153</i>
    <i name="e_fr_energy">    -14.83610595</i>
    <i name="e_wo_entrp">    -14.83599443</i>
    <i name="e_0_energy">    -14.83605019</i>
   </energy>
  </scstep>
  <structure>
   <crystal>
    <varray name="basis" >
     <v>       3.91618718      0.00000000      0.00000000</v>
     <v>       0.00000000      3.91618718      0.00000000</v>
     <v>       0.00000000      0.00000000      3.91618718</v>
    </varray>
    <i name="volume">     60.06069089</i>
    <varray name="rec_basis" >
     <v>       0.25535041      0.00000000      0.00000000</v>
     <v>       0.00000000      0.25535041      0.00000000</v>
     <v>       0.00000000      0.00000000      0.25535041</v>
    </varray>
   </crystal>
   <varray name="positions" >
    <v>       0.50000000      0.50000000      0.00000000</v>
    <v>       0.50000000      0.00000000      0.50000000</v>
    <v>       0.00000000      0.50000000      0.50000000</v>
    <v>       0.00000000      0.00000000      0.00000000</v>
   </varray>
  </structure>
  <varray name="forces" >
   <v>      -0.00000000      0.00000000     -0.00000000</v>
   <v>      -0.00000000     -0.00000000      0.00000000</v>
   <v>       0.00000000     -0.00000000     -0.00000000</v>
   <v>       0.00000000      0.00000000      0.00000000</v>
  </varray>
  <varray name="stress" >
   <v>      89.50888327      0.00000000     -0.00000000</v>
   <v>       0.00000000     89.50888327     -0.00000000</v>
   <v>       0.00000000      0.00000000     89.50888327</v>
  </varray>
  <energy>
   <i name="e_fr_energy">    -14.83610595</i>
   <i name="e_wo_entrp">    -14.83605019</i>
   <i name="e_0_energy">     -0.00011152</i>
  </energy>
  <eigenvalues>
   <array>
    <dimension dim="1">band</dimension>
    <dimension dim="2">kpoint</dimension>
    <dimension dim="3">spin</dimension>
    <field>eigene</field>
    <field>occ</field>
    <set>
     <set comment="spin 1">
      <set comment="kpoint 1">
       <r>  -2.7825  1.0000</r>
       <r>   5.8678  1.0000</r>
       <r>   5.8678  1.0000</r>
       <r>   5.8678  1.0000</r>
       <r>   7.3863  1.0000</r>
       <r>   7.3863  1.0000</r>
       <r>   7.3863  1.0000</r>
       <r>  14.2967  0.0000</r>
       <r>  14.2967  0.0000</r>
       <r>  14.2967  0.0000</r>
       <r>  15.0760  0.0000</r>
       <r>  15.0760  0.0000</r>
       <r>  15.0760  0.0000</r>
       <r>  15.0760  0.0000</r>
       <r>  15.0760  0.0000</r>
       <r>  15.0760  0.0000</r>
      </set>
      <set comment="kpoint 2">
       <r>  -2.7255  1.0000</r>
       <r>   5.0797  1.0000</r>
       <r>   5.9194  1.0000</r>
       <r>   5.9194  1.0000</r>
       <r>   7.4396  1.0000</r>
       <r>   7.4396  1.0000</r>
       <r>   8.2711  1.0000</r>
       <r>  13.3211  0.0000</r>
       <r>  13.3211  0.0000</r>
       <r>  14.3531  0.0000</r>
       <r>  14.7038  0.0000</r>
       <r>  14.7038  0.0000</r>
       <r>  15.1234  0.0000</r>
       <r>  15.1234  0.0000</r>
       <r>  16.1574  0.0000</r>
       <r>  16.1574  0.0000</r>
      </set>
      <set comment="kpoint 3">
       <r>  -2.5544  1.0000</r>
       <r>   3.9148  1.0000</r>
       <r>   6.0743  1.0000</r>
       <r>   6.0743  1.0000</r>
       <r>   7.5982  1.0000</r>
       <r>   7.5982  1.0000</r>
       <r>   9.7262  0.0000</r>
       <r>  12.1434  0.0000</r>
       <r>  12.1434  0.0000</r>
       <r>  13.8885  0.0000</r>
       <r>  13.8885  0.0000</r>
       <r>  14.5223  0.0000</r>
       <r>  15.2656  0.0000</r>
       <r>  15.2656  0.0000</r>
       <r>  17.6520  0.0000</r>
       <r>  17.6520  0.0000</r>
      </set>
      <set comment="kpoint 4">
       <r>  -2.2697  1.0000</r>
       <r>   2.7923  1.0000</r>
       <r>   6.3326  1.0000</r>
       <r>   6.3326  1.0000</r>
       <r>   7.8575  1.0000</r>
       <r>   7.8575  1.0000</r>
       <r>  11.0543  0.0000</r>
       <r>  11.0543  0.0000</r>
       <r>  11.3317  0.0000</r>
       <r>  12.9661  0.0000</r>
       <r>  12.9661  0.0000</r>
       <r>  14.8039  0.0000</r>
       <r>  15.5027  0.0000</r>
       <r>  15.5027  0.0000</r>
       <r>  19.2680  0.0000</r>
       <r>  19.2680  0.0000</r>
      </set>
      <set comment="kpoint 5">
       <r>  -1.8723  1.0000</r>
       <r>   1.7566  1.0000</r>
       <r>   6.6945  1.0000</r>
       <r>   6.6945  1.0000</r>
       <r>   8.2055  1.0000</r>
       <r>   8.2055  1.0000</r>
       <r>  10.0668  0.0000</r>
       <r>  10.0668  0.0000</r>
       <r>  12.0758  0.0000</r>
       <r>  12.0758  0.0000</r>
       <r>  13.0427  0.0000</r>
       <r>  15.1975  0.0000</r>
       <r>  15.8348  0.0000</r>
       <r>  15.8348  0.0000</r>
       <r>  18.7811  0.0000</r>
       <r>  18.9107  0.0000</r>
      </set>
      <set comment="kpoint 6">
       <r>  -1.3631  1.0000</r>
       <r>   0.8189  1.0000</r>
       <r>   7.1602  1.0000</r>
       <r>   7.1602  1.0000</r>
       <r>   8.6096  1.0000</r>
       <r>   8.6096  1.0000</r>
       <r>   9.1832  0.0000</r>
       <r>   9.1832  0.0000</r>
       <r>  11.2958  0.0000</r>
       <r>  11.2958  0.0000</r>
       <r>  14.8461  0.0000</r>
       <r>  15.7021  0.0000</r>
       <r>  16.2621  0.0000</r>
       <r>  16.2621  0.0000</r>
       <r>  17.8620  0.0000</r>
       <r>  18.1109  0.0000</r>
      </set>
      <set comment="kpoint 7">
       <r>  -0.7436  1.0000</r>
       <r>  -0.0155  1.0000</r>
       <r>   7.7301  1.0000</r>
       <r>   7.7301  1.0000</r>
       <r>   8.4044  1.0000</r>
       <r>   8.4044  1.0000</r>
       <r>   8.9562  1.0000</r>
       <r>   8.9562  1.0000</r>
       <r>  10.7579  0.0000</r>
       <r>  10.7579  0.0000</r>
       <r>  16.3163  0.0000</r>
       <r>  16.7334  0.0000</r>
       <r>  16.7843  0.0000</r>
       <r>  16.7843  0.0000</r>
       <r>  17.0377  0.0000</r>
       <r>  17.4011  0.0000</r>
      </set>
      <set comment="kpoint 8">
       <r>  -2.6684  1.0000</r>
       <r>   5.1326  1.0000</r>
       <r>   5.1326  1.0000</r>
       <r>   5.9711  1.0000</r>
       <r>   7.4922  1.0000</r>
       <r>   8.3227  1.0000</r>
       <r>   8.3227  1.0000</r>
       <r>  12.5757  0.0000</r>
       <r>  13.3743  0.0000</r>
       <r>  13.3743  0.0000</r>
       <r>  14.7529  0.0000</r>
       <r>  14.7529  0.0000</r>
       <r>  15.1719  0.0000</r>
       <r>  16.1307  0.0000</r>
       <r>  16.2080  0.0000</r>
       <r>  16.2080  0.0000</r>
      </set>
      <set comment="kpoint 9">
       <r>  -2.4974  1.0000</r>
       <r>   3.9686  1.0000</r>
       <r>   5.2912  1.0000</r>
       <r>   6.1260  1.0000</r>
       <r>   7.6481  1.0000</r>
       <r>   8.4761  1.0000</r>
       <r>   9.7752  0.0000</r>
       <r>  11.4706  0.0000</r>
       <r>  12.1960  0.0000</r>
       <r>  13.5337  0.0000</r>
       <r>  13.9410  0.0000</r>
       <r>  14.6084  0.0000</r>
       <r>  14.9003  0.0000</r>
       <r>  16.3597  0.0000</r>
       <r>  17.2546  0.0000</r>
       <r>  17.7030  0.0000</r>
      </set>
      <set comment="kpoint 10">
       <r>  -2.2129  1.0000</r>
       <r>   2.8468  1.0000</r>
       <r>   5.5549  1.0000</r>
       <r>   6.3843  1.0000</r>
       <r>   7.8985  1.0000</r>
       <r>   8.7258  1.0000</r>
       <r>  10.4168  0.0000</r>
       <r>  11.1067  0.0000</r>
       <r>  11.3764  0.0000</r>
       <r>  13.0242  0.0000</r>
       <r>  13.6976  0.0000</r>
       <r>  13.7991  0.0000</r>
       <r>  15.1468  0.0000</r>
       <r>  16.6127  0.0000</r>
       <r>  18.5282  0.0000</r>
       <r>  18.7988  0.0000</r>
      </set>
      <set comment="kpoint 11">
       <r>  -1.8156  1.0000</r>
       <r>   1.8116  1.0000</r>
       <r>   5.9229  1.0000</r>
       <r>   6.7462  1.0000</r>
       <r>   8.2055  1.0000</r>
       <r>   9.0564  0.0000</r>
       <r>   9.4903  0.0000</r>
       <r>  10.1190  0.0000</r>
       <r>  12.1461  0.0000</r>
       <r>  12.7973  0.0000</r>
       <r>  13.0775  0.0000</r>
       <r>  14.1699  0.0000</r>
       <r>  15.4959  0.0000</r>
       <r>  16.9670  0.0000</r>
       <r>  17.5620  0.0000</r>
       <r>  18.5476  0.0000</r>
      </set>
      <set comment="kpoint 12">
       <r>  -1.3066  1.0000</r>
       <r>   0.8744  1.0000</r>
       <r>   6.3936  1.0000</r>
       <r>   7.2120  1.0000</r>
       <r>   8.2343  1.0000</r>
       <r>   9.0202  0.0092</r>
       <r>   9.2353  0.0000</r>
       <r>   9.4149  0.0000</r>
       <r>  11.4074  0.0000</r>
       <r>  11.9828  0.0000</r>
       <r>  14.6453  0.0000</r>
       <r>  14.8439  0.0000</r>
       <r>  15.9686  0.0000</r>
       <r>  16.6856  0.0000</r>
       <r>  17.4225  0.0000</r>
       <r>  17.7408  0.0000</r>
      </set>
      <set comment="kpoint 13">
       <r>  -0.6874  1.0000</r>
       <r>   0.0404  1.0000</r>
       <r>   6.9626  1.0000</r>
       <r>   7.6151  1.0000</r>
       <r>   7.7820  1.0000</r>
       <r>   8.4563  1.0000</r>
       <r>   9.3273  0.0000</r>
       <r>   9.5906  0.0000</r>
       <r>  11.0414  0.0000</r>
       <r>  11.3261  0.0000</r>
       <r>  15.2243  0.0000</r>
       <r>  15.9052  0.0000</r>
       <r>  16.2864  0.0000</r>
       <r>  16.9455  0.0000</r>
       <r>  17.0093  0.0000</r>
       <r>  17.9784  0.0000</r>
      </set>
      <set comment="kpoint 14">
       <r>  -2.3266  1.0000</r>
       <r>   4.1300  1.0000</r>
       <r>   4.1300  1.0000</r>
       <r>   6.2810  1.0000</r>
       <r>   7.7916  1.0000</r>
       <r>   9.9198  0.0000</r>
       <r>   9.9198  0.0000</r>
       <r>  10.4080  0.0000</r>
       <r>  12.3537  0.0000</r>
       <r>  12.3537  0.0000</r>
       <r>  14.0999  0.0000</r>
       <r>  14.0999  0.0000</r>
       <r>  15.4596  0.0000</r>
       <r>  16.8812  0.0000</r>
       <r>  17.8559  0.0000</r>
       <r>  17.8559  0.0000</r>
      </set>
      <set comment="kpoint 15">
       <r>  -2.0425  1.0000</r>
       <r>   3.0102  1.0000</r>
       <r>   4.3984  1.0000</r>
       <r>   6.5394  1.0000</r>
       <r>   7.9894  1.0000</r>
       <r>   9.4175  0.0000</r>
       <r>  10.1485  0.0000</r>
       <r>  11.2637  0.0000</r>
       <r>  11.5036  0.0000</r>
       <r>  12.6165  0.0000</r>
       <r>  13.2036  0.0000</r>
       <r>  14.3707  0.0000</r>
       <r>  14.9712  0.0000</r>
       <r>  17.3524  0.0000</r>
       <r>  17.9626  0.0000</r>
       <r>  18.1105  0.0000</r>
      </set>
      <set comment="kpoint 16">
       <r>  -1.6457  1.0000</r>
       <r>   1.9766  1.0000</r>
       <r>   4.7729  1.0000</r>
       <r>   6.9015  1.0000</r>
       <r>   7.9326  1.0000</r>
       <r>   8.8633  1.0000</r>
       <r>  10.2756  0.0000</r>
       <r>  10.4186  0.0000</r>
       <r>  12.3823  0.0000</r>
       <r>  12.9840  0.0000</r>
       <r>  13.1541  0.0000</r>
       <r>  14.1225  0.0000</r>
       <r>  14.7802  0.0000</r>
       <r>  16.3738  0.0000</r>
       <r>  17.7554  0.0000</r>
       <r>  18.4662  0.0000</r>
      </set>
      <set comment="kpoint 17">
       <r>  -1.1375  1.0000</r>
       <r>   1.0407  1.0000</r>
       <r>   5.2520  1.0000</r>
       <r>   7.2574  1.0000</r>
       <r>   7.3675  1.0000</r>
       <r>   9.1172  0.0000</r>
       <r>   9.3916  0.0000</r>
       <r>  10.5382  0.0000</r>
       <r>  11.8756  0.0000</r>
       <r>  13.3047  0.0000</r>
       <r>  13.4560  0.0000</r>
       <r>  14.6452  0.0000</r>
       <r>  15.4923  0.0000</r>
       <r>  15.5401  0.0000</r>
       <r>  16.9395  0.0000</r>
       <r>  18.9221  0.0000</r>
      </set>
      <set comment="kpoint 18">
       <r>  -0.5190  1.0000</r>
       <r>   0.2078  1.0000</r>
       <r>   5.8327  1.0000</r>
       <r>   6.5086  1.0000</r>
       <r>   7.9377  1.0000</r>
       <r>   8.6123  1.0000</r>
       <r>   9.6232  0.0000</r>
       <r>  10.1817  0.0000</r>
       <r>  12.0303  0.0000</r>
       <r>  12.5848  0.0000</r>
       <r>  14.0319  0.0000</r>
       <r>  14.7111  0.0000</r>
       <r>  15.4972  0.0000</r>
       <r>  16.1934  0.0000</r>
       <r>  17.1199  0.0000</r>
       <r>  19.0248  0.0000</r>
      </set>
      <set comment="kpoint 19">
       <r>  -1.7590  1.0000</r>
       <r>   3.2820  1.0000</r>
       <r>   3.2820  1.0000</r>
       <r>   6.7980  1.0000</r>
       <r>   7.8290  1.0000</r>
       <r>   8.7868  1.0000</r>
       <r>  11.5254  0.0000</r>
       <r>  11.5254  0.0000</r>
       <r>  11.6756  0.0000</r>
       <r>  11.6756  0.0000</r>
       <r>  13.5342  0.0000</r>
       <r>  13.5342  0.0000</r>
       <r>  15.9398  0.0000</r>
       <r>  16.2691  0.0000</r>
       <r>  17.5723  0.0000</r>
       <r>  17.7356  0.0000</r>
      </set>
      <set comment="kpoint 20">
       <r>  -1.3631  1.0000</r>
       <r>   2.2510  1.0000</r>
       <r>   3.6613  1.0000</r>
       <r>   7.0617  1.0000</r>
       <r>   7.1604  1.0000</r>
       <r>   8.9432  1.0000</r>
       <r>  10.5366  0.0000</r>
       <r>  11.7052  0.0000</r>
       <r>  11.8917  0.0000</r>
       <r>  12.9526  0.0000</r>
       <r>  13.0806  0.0000</r>
       <r>  14.1946  0.0000</r>
       <r>  15.2836  0.0000</r>
       <r>  15.5615  0.0000</r>
       <r>  16.8550  0.0000</r>
       <r>  18.7001  0.0000</r>
      </set>
      <set comment="kpoint 21">
       <r>  -0.8560  1.0000</r>
       <r>   1.3173  1.0000</r>
       <r>   4.1469  1.0000</r>
       <r>   6.2105  1.0000</r>
       <r>   7.6267  1.0000</r>
       <r>   9.3770  0.0000</r>
       <r>   9.6521  0.0000</r>
       <r>  11.2486  0.0000</r>
       <r>  12.3625  0.0000</r>
       <r>  13.0174  0.0000</r>
       <r>  13.9456  0.0000</r>
       <r>  14.3988  0.0000</r>
       <r>  14.8114  0.0000</r>
       <r>  15.5867  0.0000</r>
       <r>  16.0313  0.0000</r>
       <r>  20.3808  0.0000</r>
      </set>
      <set comment="kpoint 22">
       <r>  -0.2389  1.0000</r>
       <r>   0.4863  1.0000</r>
       <r>   4.7368  1.0000</r>
       <r>   5.4272  1.0000</r>
       <r>   8.1973  1.0000</r>
       <r>   8.8723  1.0000</r>
       <r>   9.9353  0.0000</r>
       <r>  10.5794  0.0000</r>
       <r>  12.9375  0.0000</r>
       <r>  13.4744  0.0000</r>
       <r>  13.6165  0.0000</r>
       <r>  14.0934  0.0000</r>
       <r>  14.5964  0.0000</r>
       <r>  15.2789  0.0000</r>
       <r>  17.3721  0.0000</r>
       <r>  19.2877  0.0000</r>
      </set>
      <set comment="kpoint 23">
       <r>  -0.9685  1.0000</r>
       <r>   2.6341  1.0000</r>
       <r>   2.6341  1.0000</r>
       <r>   6.1090  1.0000</r>
       <r>   7.5231  1.0000</r>
       <r>   9.2828  0.0000</r>
       <r>  10.9021  0.0000</r>
       <r>  10.9021  0.0000</r>
       <r>  12.5110  0.0000</r>
       <r>  12.5110  0.0000</r>
       <r>  14.2130  0.0000</r>
       <r>  14.2130  0.0000</r>
       <r>  14.2944  0.0000</r>
       <r>  15.9676  0.0000</r>
       <r>  16.6137  0.0000</r>
       <r>  18.3980  0.0000</r>
      </set>
      <set comment="kpoint 24">
       <r>  -0.4629  1.0000</r>
       <r>   1.7036  1.0000</r>
       <r>   3.1248  1.0000</r>
       <r>   5.2200  1.0000</r>
       <r>   7.9899  1.0000</r>
       <r>   9.7529  0.0000</r>
       <r>  10.0169  0.0000</r>
       <r>  11.3721  0.0000</r>
       <r>  11.7443  0.0000</r>
       <r>  13.0935  0.0000</r>
       <r>  13.4080  0.0000</r>
       <r>  14.5829  0.0000</r>
       <r>  15.1364  0.0000</r>
       <r>  15.8871  0.0000</r>
       <r>  16.3559  0.0000</r>
       <r>  19.5879  0.0000</r>
      </set>
      <set comment="kpoint 25">
       <r>   0.1522  1.0000</r>
       <r>   0.8752  1.0000</r>
       <r>   3.7213  1.0000</r>
       <r>   4.4212  1.0000</r>
       <r>   8.5609  1.0000</r>
       <r>   9.2365  0.0000</r>
       <r>  10.3297  0.0000</r>
       <r>  10.9999  0.0000</r>
       <r>  11.9464  0.0000</r>
       <r>  12.6252  0.0000</r>
       <r>  13.7001  0.0000</r>
       <r>  14.3787  0.0000</r>
       <r>  15.1019  0.0000</r>
       <r>  15.7156  0.0000</r>
       <r>  17.7099  0.0000</r>
       <r>  19.6025  0.0000</r>
      </set>
      <set comment="kpoint 26">
       <r>   0.0407  1.0000</r>
       <r>   2.1984  1.0000</r>
       <r>   2.1984  1.0000</r>
       <r>   4.3153  1.0000</r>
       <r>   8.4572  1.0000</r>
       <r>  10.2357  0.0000</r>
       <r>  10.4862  0.0000</r>
       <r>  10.4862  0.0000</r>
       <r>  12.2629  0.0000</r>
       <r>  12.2629  0.0000</r>
       <r>  12.5209  0.0000</r>
       <r>  14.2982  0.0000</r>
       <r>  16.3112  0.0000</r>
       <r>  16.3112  0.0000</r>
       <r>  17.4821  0.0000</r>
       <r>  19.3981  0.0000</r>
      </set>
      <set comment="kpoint 27">
       <r>   0.6534  1.0000</r>
       <r>   1.3734  1.0000</r>
       <r>   2.8002  1.0000</r>
       <r>   3.5069  1.0000</r>
       <r>   9.0288  0.0002</r>
       <r>   9.7051  0.0000</r>
       <r>  10.8199  0.0000</r>
       <r>  11.0599  0.0000</r>
       <r>  11.4989  0.0000</r>
       <r>  11.7382  0.0000</r>
       <r>  12.8565  0.0000</r>
       <r>  13.5354  0.0000</r>
       <r>  16.8209  0.0000</r>
       <r>  17.3479  0.0000</r>
       <r>  18.1190  0.0000</r>
       <r>  19.9091  0.0000</r>
      </set>
      <set comment="kpoint 28">
       <r>   1.2631  1.0000</r>
       <r>   1.9795  1.0000</r>
       <r>   1.9795  1.0000</r>
       <r>   2.6916  1.0000</r>
       <r>   9.6011  0.0000</r>
       <r>  10.2781  0.0000</r>
       <r>  10.2781  0.0000</r>
       <r>  10.9558  0.0000</r>
       <r>  11.4072  0.0000</r>
       <r>  12.0883  0.0000</r>
       <r>  12.0883  0.0000</r>
       <r>  12.7687  0.0000</r>
       <r>  18.5336  0.0000</r>
       <r>  18.5336  0.0000</r>
       <r>  18.5459  0.0000</r>
       <r>  19.8048  0.0000</r>
      </set>
      <set comment="kpoint 29">
       <r>  -2.6114  1.0000</r>
       <r>   5.1855  1.0000</r>
       <r>   5.1855  1.0000</r>
       <r>   5.1855  1.0000</r>
       <r>   8.3734  1.0000</r>
       <r>   8.3734  1.0000</r>
       <r>   8.3734  1.0000</r>
       <r>  12.6293  0.0000</r>
       <r>  12.6293  0.0000</r>
       <r>  12.6293  0.0000</r>
       <r>  15.2193  0.0000</r>
       <r>  15.2193  0.0000</r>
       <r>  15.2193  0.0000</r>
       <r>  16.1842  0.0000</r>
       <r>  16.1842  0.0000</r>
       <r>  16.1842  0.0000</r>
      </set>
      <set comment="kpoint 30">
       <r>  -2.4405  1.0000</r>
       <r>   4.0224  1.0000</r>
       <r>   5.3439  1.0000</r>
       <r>   5.3439  1.0000</r>
       <r>   8.5228  1.0000</r>
       <r>   8.5228  1.0000</r>
       <r>   9.8222  0.0000</r>
       <r>  11.5265  0.0000</r>
       <r>  11.5265  0.0000</r>
       <r>  12.7907  0.0000</r>
       <r>  14.6590  0.0000</r>
       <r>  14.6590  0.0000</r>
       <r>  15.3615  0.0000</r>
       <r>  16.3447  0.0000</r>
       <r>  17.3069  0.0000</r>
       <r>  17.3069  0.0000</r>
      </set>
      <set comment="kpoint 31">
       <r>  -2.1560  1.0000</r>
       <r>   2.9013  1.0000</r>
       <r>   5.6072  1.0000</r>
       <r>   5.6072  1.0000</r>
       <r>   8.7568  1.0000</r>
       <r>   8.7568  1.0000</r>
       <r>  10.4821  0.0000</r>
       <r>  10.4821  0.0000</r>
       <r>  11.4130  0.0000</r>
       <r>  13.0651  0.0000</r>
       <r>  13.7518  0.0000</r>
       <r>  13.7518  0.0000</r>
       <r>  15.5988  0.0000</r>
       <r>  16.6120  0.0000</r>
       <r>  17.7153  0.0000</r>
       <r>  18.8501  0.0000</r>
      </set>
      <set comment="kpoint 32">
       <r>  -1.7590  1.0000</r>
       <r>   1.8666  1.0000</r>
       <r>   5.9744  1.0000</r>
       <r>   5.9744  1.0000</r>
       <r>   8.9590  1.0000</r>
       <r>   8.9590  1.0000</r>
       <r>   9.6499  0.0000</r>
       <r>   9.6499  0.0000</r>
       <r>  12.8577  0.0000</r>
       <r>  12.8577  0.0000</r>
       <r>  13.0271  0.0000</r>
       <r>  13.5245  0.0000</r>
       <r>  15.9311  0.0000</r>
       <r>  16.7558  0.0000</r>
       <r>  16.9864  0.0000</r>
       <r>  19.0096  0.0000</r>
      </set>
      <set comment="kpoint 33">
       <r>  -1.2502  1.0000</r>
       <r>   0.9299  1.0000</r>
       <r>   6.4419  1.0000</r>
       <r>   6.4419  1.0000</r>
       <r>   8.4633  1.0000</r>
       <r>   8.4633  1.0000</r>
       <r>   9.6854  0.0000</r>
       <r>   9.6854  0.0000</r>
       <r>  12.0609  0.0000</r>
       <r>  12.0609  0.0000</r>
       <r>  13.8326  0.0000</r>
       <r>  14.9832  0.0000</r>
       <r>  15.8849  0.0000</r>
       <r>  16.3586  0.0000</r>
       <r>  17.4698  0.0000</r>
       <r>  18.2089  0.0000</r>
      </set>
      <set comment="kpoint 34">
       <r>  -0.6313  1.0000</r>
       <r>   0.0962  1.0000</r>
       <r>   6.9892  1.0000</r>
       <r>   6.9892  1.0000</r>
       <r>   7.7485  1.0000</r>
       <r>   7.7485  1.0000</r>
       <r>  10.0329  0.0000</r>
       <r>  10.0329  0.0000</r>
       <r>  11.4820  0.0000</r>
       <r>  11.4820  0.0000</r>
       <r>  14.4275  0.0000</r>
       <r>  15.1084  0.0000</r>
       <r>  16.8158  0.0000</r>
       <r>  16.8812  0.0000</r>
       <r>  17.4984  0.0000</r>
       <r>  18.0784  0.0000</r>
      </set>
      <set comment="kpoint 35">
       <r>  -2.2697  1.0000</r>
       <r>   4.1837  1.0000</r>
       <r>   4.1837  1.0000</r>
       <r>   5.5017  1.0000</r>
       <r>   8.6516  1.0000</r>
       <r>   9.9546  0.0000</r>
       <r>   9.9546  0.0000</r>
       <r>  10.4764  0.0000</r>
       <r>  11.6996  0.0000</r>
       <r>  11.6996  0.0000</r>
       <r>  14.8110  0.0000</r>
       <r>  14.8110  0.0000</r>
       <r>  15.5071  0.0000</r>
       <r>  16.9366  0.0000</r>
       <r>  17.4636  0.0000</r>
       <r>  17.4636  0.0000</r>
      </set>
      <set comment="kpoint 36">
       <r>  -1.9857  1.0000</r>
       <r>   3.0646  1.0000</r>
       <r>   4.4518  1.0000</r>
       <r>   5.7636  1.0000</r>
       <r>   8.7461  1.0000</r>
       <r>   9.5854  0.0000</r>
       <r>  10.0802  0.0000</r>
       <r>  10.7513  0.0000</r>
       <r>  11.4445  0.0000</r>
       <r>  12.0672  0.0000</r>
       <r>  13.9162  0.0000</r>
       <r>  15.0218  0.0000</r>
       <r>  15.0658  0.0000</r>
       <r>  16.6085  0.0000</r>
       <r>  17.7244  0.0000</r>
       <r>  18.0154  0.0000</r>
      </set>
      <set comment="kpoint 37">
       <r>  -1.5892  1.0000</r>
       <r>   2.0315  1.0000</r>
       <r>   4.8258  1.0000</r>
       <r>   6.1264  1.0000</r>
       <r>   8.2124  1.0000</r>
       <r>   9.5057  0.0000</r>
       <r>   9.5124  0.0000</r>
       <r>  10.6590  0.0000</r>
       <r>  12.2190  0.0000</r>
       <r>  13.0481  0.0000</r>
       <r>  13.3492  0.0000</r>
       <r>  14.1765  0.0000</r>
       <r>  15.4298  0.0000</r>
       <r>  15.6419  0.0000</r>
       <r>  18.0885  0.0000</r>
       <r>  18.5022  0.0000</r>
      </set>
      <set comment="kpoint 38">
       <r>  -1.0811  1.0000</r>
       <r>   1.0961  1.0000</r>
       <r>   5.3036  1.0000</r>
       <r>   6.5681  1.0000</r>
       <r>   7.4166  1.0000</r>
       <r>   8.6696  1.0000</r>
       <r>   9.8994  0.0000</r>
       <r>  10.9352  0.0000</r>
       <r>  12.3489  0.0000</r>
       <r>  12.7246  0.0000</r>
       <r>  13.3644  0.0000</r>
       <r>  14.7671  0.0000</r>
       <r>  15.0360  0.0000</r>
       <r>  15.9502  0.0000</r>
       <r>  17.6870  0.0000</r>
       <r>  18.5551  0.0000</r>
      </set>
      <set comment="kpoint 39">
       <r>  -0.4630  1.0000</r>
       <r>   0.2635  1.0000</r>
       <r>   5.8799  1.0000</r>
       <r>   6.5230  1.0000</r>
       <r>   7.2641  1.0000</r>
       <r>   7.9022  1.0000</r>
       <r>  10.4073  0.0000</r>
       <r>  10.8841  0.0000</r>
       <r>  12.1921  0.0000</r>
       <r>  12.6616  0.0000</r>
       <r>  13.3083  0.0000</r>
       <r>  13.9886  0.0000</r>
       <r>  16.2364  0.0000</r>
       <r>  16.9451  0.0000</r>
       <r>  17.1565  0.0000</r>
       <r>  18.9933  0.0000</r>
      </set>
      <set comment="kpoint 40">
       <r>  -1.7023  1.0000</r>
       <r>   3.3362  1.0000</r>
       <r>   3.3362  1.0000</r>
       <r>   6.0210  1.0000</r>
       <r>   8.1189  1.0000</r>
       <r>   9.4233  0.0000</r>
       <r>  10.7672  0.0000</r>
       <r>  10.7672  0.0000</r>
       <r>  11.8965  0.0000</r>
       <r>  11.8965  0.0000</r>
       <r>  14.2007  0.0000</r>
       <r>  14.2007  0.0000</r>
       <r>  15.5519  0.0000</r>
       <r>  15.9874  0.0000</r>
       <r>  17.6274  0.0000</r>
       <r>  18.5042  0.0000</r>
      </set>
      <set comment="kpoint 41">
       <r>  -1.3067  1.0000</r>
       <r>   2.3058  1.0000</r>
       <r>   3.7152  1.0000</r>
       <r>   6.3574  1.0000</r>
       <r>   7.2275  1.0000</r>
       <r>   9.7295  0.0000</r>
       <r>   9.8203  0.0000</r>
       <r>  11.1759  0.0000</r>
       <r>  12.0846  0.0000</r>
       <r>  13.4305  0.0000</r>
       <r>  13.4545  0.0000</r>
       <r>  14.5792  0.0000</r>
       <r>  14.6626  0.0000</r>
       <r>  15.6119  0.0000</r>
       <r>  17.6230  0.0000</r>
       <r>  18.7522  0.0000</r>
      </set>
      <set comment="kpoint 42">
       <r>  -0.7997  1.0000</r>
       <r>   1.3726  1.0000</r>
       <r>   4.2003  1.0000</r>
       <r>   6.2219  1.0000</r>
       <r>   6.9580  1.0000</r>
       <r>   8.9445  1.0000</r>
       <r>  10.1817  0.0000</r>
       <r>  11.6590  0.0000</r>
       <r>  11.9448  0.0000</r>
       <r>  13.1745  0.0000</r>
       <r>  13.7004  0.0000</r>
       <r>  14.6594  0.0000</r>
       <r>  14.8647  0.0000</r>
       <r>  15.6981  0.0000</r>
       <r>  16.7991  0.0000</r>
       <r>  20.0660  0.0000</r>
      </set>
      <set comment="kpoint 43">
       <r>  -0.1830  1.0000</r>
       <r>   0.5419  1.0000</r>
       <r>   4.7887  1.0000</r>
       <r>   5.4744  1.0000</r>
       <r>   7.4921  1.0000</r>
       <r>   8.1653  1.0000</r>
       <r>  10.7360  0.0000</r>
       <r>  11.3610  0.0000</r>
       <r>  12.2392  0.0000</r>
       <r>  12.9197  0.0000</r>
       <r>  13.5486  0.0000</r>
       <r>  14.1518  0.0000</r>
       <r>  15.3633  0.0000</r>
       <r>  16.0478  0.0000</r>
       <r>  17.4190  0.0000</r>
       <r>  19.3208  0.0000</r>
      </set>
      <set comment="kpoint 44">
       <r>  -0.9122  1.0000</r>
       <r>   2.6887  1.0000</r>
       <r>   2.6887  1.0000</r>
       <r>   6.1199  1.0000</r>
       <r>   6.8546  1.0000</r>
       <r>  10.0902  0.0000</r>
       <r>  10.2003  0.0000</r>
       <r>  10.2003  0.0000</r>
       <r>  13.2086  0.0000</r>
       <r>  13.2086  0.0000</r>
       <r>  13.6021  0.0000</r>
       <r>  14.3559  0.0000</r>
       <r>  14.3559  0.0000</r>
       <r>  16.6613  0.0000</r>
       <r>  16.7366  0.0000</r>
       <r>  18.4516  0.0000</r>
      </set>
      <set comment="kpoint 45">
       <r>  -0.4068  1.0000</r>
       <r>   1.7586  1.0000</r>
       <r>   3.1790  1.0000</r>
       <r>   5.2673  1.0000</r>
       <r>   7.2841  1.0000</r>
       <r>   9.3174  0.0000</r>
       <r>  10.5606  0.0000</r>
       <r>  10.6778  0.0000</r>
       <r>  12.5176  0.0000</r>
       <r>  12.7204  0.0000</r>
       <r>  13.8614  0.0000</r>
       <r>  14.6528  0.0000</r>
       <r>  15.9060  0.0000</r>
       <r>  15.9493  0.0000</r>
       <r>  16.4058  0.0000</r>
       <r>  19.6383  0.0000</r>
      </set>
      <set comment="kpoint 46">
       <r>   0.2080  1.0000</r>
       <r>   0.9307  1.0000</r>
       <r>   3.7749  1.0000</r>
       <r>   4.4733  1.0000</r>
       <r>   7.8548  1.0000</r>
       <r>   8.5342  1.0000</r>
       <r>  11.1313  0.0000</r>
       <r>  11.2569  0.0000</r>
       <r>  11.7917  0.0000</r>
       <r>  11.9380  0.0000</r>
       <r>  14.4736  0.0000</r>
       <r>  15.1503  0.0000</r>
       <r>  15.1586  0.0000</r>
       <r>  15.7680  0.0000</r>
       <r>  17.7583  0.0000</r>
       <r>  19.6459  0.0000</r>
      </set>
      <set comment="kpoint 47">
       <r>   0.0965  1.0000</r>
       <r>   2.2532  1.0000</r>
       <r>   2.2532  1.0000</r>
       <r>   4.3675  1.0000</r>
       <r>   7.7506  1.0000</r>
       <r>   9.7927  0.0000</r>
       <r>   9.7927  0.0000</r>
       <r>  11.0398  0.0000</r>
       <r>  11.8366  0.0000</r>
       <r>  13.0440  0.0000</r>
       <r>  13.0440  0.0000</r>
       <r>  15.0697  0.0000</r>
       <r>  16.3649  0.0000</r>
       <r>  16.3649  0.0000</r>
       <r>  17.5298  0.0000</r>
       <r>  19.4490  0.0000</r>
      </set>
      <set comment="kpoint 48">
       <r>   0.7090  1.0000</r>
       <r>   1.4286  1.0000</r>
       <r>   2.8546  1.0000</r>
       <r>   3.5606  1.0000</r>
       <r>   8.3267  1.0000</r>
       <r>   9.0082  0.2546</r>
       <r>  10.3713  0.0000</r>
       <r>  11.0530  0.0000</r>
       <r>  11.6174  0.0000</r>
       <r>  12.2886  0.0000</r>
       <r>  13.6352  0.0000</r>
       <r>  14.3102  0.0000</r>
       <r>  16.8718  0.0000</r>
       <r>  17.3971  0.0000</r>
       <r>  18.1675  0.0000</r>
       <r>  19.9554  0.0000</r>
      </set>
      <set comment="kpoint 49">
       <r>   1.3184  1.0000</r>
       <r>   2.0344  1.0000</r>
       <r>   2.0344  1.0000</r>
       <r>   2.7461  1.0000</r>
       <r>   8.9045  1.0000</r>
       <r>   9.5865  0.0000</r>
       <r>   9.5865  0.0000</r>
       <r>  10.2685  0.0000</r>
       <r>  12.1985  0.0000</r>
       <r>  12.8730  0.0000</r>
       <r>  12.8730  0.0000</r>
       <r>  13.5480  0.0000</r>
       <r>  18.5818  0.0000</r>
       <r>  18.5818  0.0000</r>
       <r>  18.5936  0.0000</r>
       <r>  19.8524  0.0000</r>
      </set>
      <set comment="kpoint 50">
       <r>  -2.0992  1.0000</r>
       <r>   4.3445  1.0000</r>
       <r>   4.3445  1.0000</r>
       <r>   4.3445  1.0000</r>
       <r>   9.9741  0.0000</r>
       <r>   9.9741  0.0000</r>
       <r>   9.9741  0.0000</r>
       <r>  10.7579  0.0000</r>
       <r>  10.7579  0.0000</r>
       <r>  10.7579  0.0000</r>
       <r>  15.6495  0.0000</r>
       <r>  15.6495  0.0000</r>
       <r>  15.6495  0.0000</r>
       <r>  16.5664  0.0000</r>
       <r>  17.1023  0.0000</r>
       <r>  17.1023  0.0000</r>
      </set>
      <set comment="kpoint 51">
       <r>  -1.8156  1.0000</r>
       <r>   3.2276  1.0000</r>
       <r>   4.6117  1.0000</r>
       <r>   4.6117  1.0000</r>
       <r>   9.3663  0.0000</r>
       <r>   9.3663  0.0000</r>
       <r>  10.5624  0.0000</r>
       <r>  10.5624  0.0000</r>
       <r>  10.7161  0.0000</r>
       <r>  11.8761  0.0000</r>
       <r>  15.1740  0.0000</r>
       <r>  15.1740  0.0000</r>
       <r>  15.5181  0.0000</r>
       <r>  15.8871  0.0000</r>
       <r>  17.3777  0.0000</r>
       <r>  18.1732  0.0000</r>
      </set>
      <set comment="kpoint 52">
       <r>  -1.4196  1.0000</r>
       <r>   2.1961  1.0000</r>
       <r>   4.9836  1.0000</r>
       <r>   4.9836  1.0000</r>
       <r>   8.4429  1.0000</r>
       <r>   8.4429  1.0000</r>
       <r>  10.8566  0.0000</r>
       <r>  10.8566  0.0000</r>
       <r>  11.1413  0.0000</r>
       <r>  13.5189  0.0000</r>
       <r>  14.3402  0.0000</r>
       <r>  14.3402  0.0000</r>
       <r>  14.5498  0.0000</r>
       <r>  16.2199  0.0000</r>
       <r>  17.7617  0.0000</r>
       <r>  19.3059  0.0000</r>
      </set>
      <set comment="kpoint 53">
       <r>  -0.9122  1.0000</r>
       <r>   1.2620  1.0000</r>
       <r>   5.4552  1.0000</r>
       <r>   5.4552  1.0000</r>
       <r>   7.5763  1.0000</r>
       <r>   7.5763  1.0000</r>
       <r>  11.2689  0.0000</r>
       <r>  11.2689  0.0000</r>
       <r>  11.6292  0.0000</r>
       <r>  13.5525  0.0000</r>
       <r>  13.5525  0.0000</r>
       <r>  13.6730  0.0000</r>
       <r>  15.2876  0.0000</r>
       <r>  16.6481  0.0000</r>
       <r>  18.2547  0.0000</r>
       <r>  18.5026  0.0000</r>
      </set>
      <set comment="kpoint 54">
       <r>  -0.2949  1.0000</r>
       <r>   0.4306  1.0000</r>
       <r>   5.9939  1.0000</r>
       <r>   5.9939  1.0000</r>
       <r>   6.8365  1.0000</r>
       <r>   6.8365  1.0000</r>
       <r>  11.6779  0.0000</r>
       <r>  11.6779  0.0000</r>
       <r>  12.2116  0.0000</r>
       <r>  12.8929  0.0000</r>
       <r>  12.9523  0.0000</r>
       <r>  12.9523  0.0000</r>
       <r>  17.1230  0.0000</r>
       <r>  17.1717  0.0000</r>
       <r>  17.7902  0.0000</r>
       <r>  18.8682  0.0000</r>
      </set>
      <set comment="kpoint 55">
       <r>  -1.5326  1.0000</r>
       <r>   3.4986  1.0000</r>
       <r>   3.4986  1.0000</r>
       <r>   4.8767  1.0000</r>
       <r>   8.3547  1.0000</r>
       <r>   9.6967  0.0000</r>
       <r>   9.6967  0.0000</r>
       <r>  10.7796  0.0000</r>
       <r>  12.0843  0.0000</r>
       <r>  12.0843  0.0000</r>
       <r>  14.4653  0.0000</r>
       <r>  15.4291  0.0000</r>
       <r>  15.4291  0.0000</r>
       <r>  16.1302  0.0000</r>
       <r>  17.7920  0.0000</r>
       <r>  18.4352  0.0000</r>
      </set>
      <set comment="kpoint 56">
       <r>  -1.1375  1.0000</r>
       <r>   2.4700  1.0000</r>
       <r>   3.8766  1.0000</r>
       <r>   5.2421  1.0000</r>
       <r>   7.3889  1.0000</r>
       <r>   8.7256  1.0000</r>
       <r>  10.0840  0.0000</r>
       <r>  11.1298  0.0000</r>
       <r>  12.3995  0.0000</r>
       <r>  13.4927  0.0000</r>
       <r>  13.7490  0.0000</r>
       <r>  14.6234  0.0000</r>
       <r>  15.7633  0.0000</r>
       <r>  15.7934  0.0000</r>
       <r>  18.7998  0.0000</r>
       <r>  18.8878  0.0000</r>
      </set>
      <set comment="kpoint 57">
       <r>  -0.6312  1.0000</r>
       <r>   1.5382  1.0000</r>
       <r>   4.3593  1.0000</r>
       <r>   5.6760  1.0000</r>
       <r>   6.5442  1.0000</r>
       <r>   7.8425  1.0000</r>
       <r>  10.5655  0.0000</r>
       <r>  11.5814  0.0000</r>
       <r>  12.6126  0.0000</r>
       <r>  12.7187  0.0000</r>
       <r>  13.9367  0.0000</r>
       <r>  15.0264  0.0000</r>
       <r>  15.4515  0.0000</r>
       <r>  16.3163  0.0000</r>
       <r>  18.0537  0.0000</r>
       <r>  19.2628  0.0000</r>
      </set>
      <set comment="kpoint 58">
       <r>  -0.0152  1.0000</r>
       <r>   0.7087  1.0000</r>
       <r>   4.9412  1.0000</r>
       <r>   5.5863  1.0000</r>
       <r>   6.4234  1.0000</r>
       <r>   7.0623  1.0000</r>
       <r>  11.1472  0.0000</r>
       <r>  11.8299  0.0000</r>
       <r>  12.1112  0.0000</r>
       <r>  12.6298  0.0000</r>
       <r>  13.8305  0.0000</r>
       <r>  14.3357  0.0000</r>
       <r>  16.6152  0.0000</r>
       <r>  17.3154  0.0000</r>
       <r>  17.5503  0.0000</r>
       <r>  19.3771  0.0000</r>
      </set>
      <set comment="kpoint 59">
       <r>  -0.7435  1.0000</r>
       <r>   2.8522  1.0000</r>
       <r>   2.8522  1.0000</r>
       <r>   5.5700  1.0000</r>
       <r>   6.4436  1.0000</r>
       <r>   9.1030  0.0000</r>
       <r>   9.1030  0.0000</r>
       <r>  11.4995  0.0000</r>
       <r>  12.5163  0.0000</r>
       <r>  13.9796  0.0000</r>
       <r>  13.9796  0.0000</r>
       <r>  15.0877  0.0000</r>
       <r>  15.0877  0.0000</r>
       <r>  16.8043  0.0000</r>
       <r>  18.0374  0.0000</r>
       <r>  18.6114  0.0000</r>
      </set>
      <set comment="kpoint 60">
       <r>  -0.2388  1.0000</r>
       <r>   1.9237  1.0000</r>
       <r>   3.3414  1.0000</r>
       <r>   5.3794  1.0000</r>
       <r>   6.2130  1.0000</r>
       <r>   8.2148  1.0000</r>
       <r>   9.5820  0.0000</r>
       <r>  11.6330  0.0000</r>
       <r>  11.9666  0.0000</r>
       <r>  13.7853  0.0000</r>
       <r>  14.9148  0.0000</r>
       <r>  15.1311  0.0000</r>
       <r>  16.1715  0.0000</r>
       <r>  16.5558  0.0000</r>
       <r>  17.2283  0.0000</r>
       <r>  19.7886  0.0000</r>
      </set>
      <set comment="kpoint 61">
       <r>   0.3752  1.0000</r>
       <r>   1.0969  1.0000</r>
       <r>   3.9349  1.0000</r>
       <r>   4.6266  1.0000</r>
       <r>   6.7476  1.0000</r>
       <r>   7.4270  1.0000</r>
       <r>  10.1638  0.0000</r>
       <r>  10.8480  0.0000</r>
       <r>  12.5255  0.0000</r>
       <r>  13.1588  0.0000</r>
       <r>  15.3355  0.0000</r>
       <r>  15.8072  0.0000</r>
       <r>  15.9265  0.0000</r>
       <r>  16.4838  0.0000</r>
       <r>  17.9016  0.0000</r>
       <r>  19.7691  0.0000</r>
      </set>
      <set comment="kpoint 62">
       <r>   0.2639  1.0000</r>
       <r>   2.4174  1.0000</r>
       <r>   2.4174  1.0000</r>
       <r>   4.5210  1.0000</r>
       <r>   6.6420  1.0000</r>
       <r>   8.6924  1.0000</r>
       <r>   8.6924  1.0000</r>
       <r>  10.7471  0.0000</r>
       <r>  12.4429  0.0000</r>
       <r>  14.3986  0.0000</r>
       <r>  14.3986  0.0000</r>
       <r>  16.4149  0.0000</r>
       <r>  16.5304  0.0000</r>
       <r>  16.5304  0.0000</r>
       <r>  17.6730  0.0000</r>
       <r>  19.6003  0.0000</r>
      </set>
      <set comment="kpoint 63">
       <r>   0.8755  1.0000</r>
       <r>   1.5942  1.0000</r>
       <r>   3.0175  1.0000</r>
       <r>   3.7210  1.0000</r>
       <r>   7.2171  1.0000</r>
       <r>   7.9027  1.0000</r>
       <r>   9.2745  0.0000</r>
       <r>   9.9600  0.0000</r>
       <r>  13.0124  0.0000</r>
       <r>  13.6697  0.0000</r>
       <r>  14.9983  0.0000</r>
       <r>  15.6676  0.0000</r>
       <r>  17.0253  0.0000</r>
       <r>  17.5449  0.0000</r>
       <r>  18.3123  0.0000</r>
       <r>  20.0926  0.0000</r>
      </set>
      <set comment="kpoint 64">
       <r>   1.4841  1.0000</r>
       <r>   2.1990  1.0000</r>
       <r>   2.1990  1.0000</r>
       <r>   2.9092  1.0000</r>
       <r>   7.7980  1.0000</r>
       <r>   8.4848  1.0000</r>
       <r>   8.4848  1.0000</r>
       <r>   9.1713  0.0000</r>
       <r>  13.5877  0.0000</r>
       <r>  14.2520  0.0000</r>
       <r>  14.2520  0.0000</r>
       <r>  14.9187  0.0000</r>
       <r>  18.7260  0.0000</r>
       <r>  18.7260  0.0000</r>
       <r>  18.7367  0.0000</r>
       <r>  19.9946  0.0000</r>
      </set>
      <set comment="kpoint 65">
       <r>  -1.2502  1.0000</r>
       <r>   3.7684  1.0000</r>
       <r>   3.7684  1.0000</r>
       <r>   3.7684  1.0000</r>
       <r>   8.6391  1.0000</r>
       <r>   8.6391  1.0000</r>
       <r>   8.6391  1.0000</r>
       <r>  12.3477  0.0000</r>
       <r>  12.3477  0.0000</r>
       <r>  12.3477  0.0000</r>
       <r>  13.4100  0.0000</r>
       <r>  16.3682  0.0000</r>
       <r>  16.3682  0.0000</r>
       <r>  16.3682  0.0000</r>
       <r>  18.0647  0.0000</r>
       <r>  18.0647  0.0000</r>
      </set>
      <set comment="kpoint 66">
       <r>  -0.8560  1.0000</r>
       <r>   2.7431  1.0000</r>
       <r>   4.1439  1.0000</r>
       <r>   4.1439  1.0000</r>
       <r>   7.6563  1.0000</r>
       <r>   7.6563  1.0000</r>
       <r>   9.0176  0.0231</r>
       <r>  12.4341  0.0000</r>
       <r>  12.7009  0.0000</r>
       <r>  12.7009  0.0000</r>
       <r>  14.0314  0.0000</r>
       <r>  16.0169  0.0000</r>
       <r>  16.0169  0.0000</r>
       <r>  16.7018  0.0000</r>
       <r>  18.4430  0.0000</r>
       <r>  19.1650  0.0000</r>
      </set>
      <set comment="kpoint 67">
       <r>  -0.3508  1.0000</r>
       <r>   1.8137  1.0000</r>
       <r>   4.6198  1.0000</r>
       <r>   4.6198  1.0000</r>
       <r>   6.7706  1.0000</r>
       <r>   6.7706  1.0000</r>
       <r>   9.4975  0.0000</r>
       <r>  11.5506  0.0000</r>
       <r>  13.1317  0.0000</r>
       <r>  13.1317  0.0000</r>
       <r>  15.3054  0.0000</r>
       <r>  15.3054  0.0000</r>
       <r>  15.8019  0.0000</r>
       <r>  17.1310  0.0000</r>
       <r>  18.9238  0.0000</r>
       <r>  18.9915  0.0000</r>
      </set>
      <set comment="kpoint 68">
       <r>   0.2638  1.0000</r>
       <r>   0.9861  1.0000</r>
       <r>   5.1618  1.0000</r>
       <r>   5.1618  1.0000</r>
       <r>   6.0226  1.0000</r>
       <r>   6.0226  1.0000</r>
       <r>  10.0801  0.0000</r>
       <r>  10.7650  0.0000</r>
       <r>  13.5613  0.0000</r>
       <r>  13.5613  0.0000</r>
       <r>  14.7102  0.0000</r>
       <r>  14.7102  0.0000</r>
       <r>  17.6291  0.0000</r>
       <r>  17.6559  0.0000</r>
       <r>  18.2764  0.0000</r>
       <r>  19.3920  0.0000</r>
      </set>
      <set comment="kpoint 69">
       <r>  -0.4629  1.0000</r>
       <r>   3.1239  1.0000</r>
       <r>   3.1239  1.0000</r>
       <r>   4.5125  1.0000</r>
       <r>   6.6704  1.0000</r>
       <r>   8.0298  1.0000</r>
       <r>   8.0298  1.0000</r>
       <r>  11.4545  0.0000</r>
       <r>  13.0749  0.0000</r>
       <r>  14.3717  0.0000</r>
       <r>  14.3717  0.0000</r>
       <r>  16.3783  0.0000</r>
       <r>  16.3783  0.0000</r>
       <r>  17.0429  0.0000</r>
       <r>  18.8749  0.0000</r>
       <r>  19.3841  0.0000</r>
      </set>
      <set comment="kpoint 70">
       <r>   0.0407  1.0000</r>
       <r>   2.1982  1.0000</r>
       <r>   3.6104  1.0000</r>
       <r>   4.9492  1.0000</r>
       <r>   5.8157  1.0000</r>
       <r>   7.1366  1.0000</r>
       <r>   8.5088  1.0000</r>
       <r>  10.5677  0.0000</r>
       <r>  13.5343  0.0000</r>
       <r>  14.7116  0.0000</r>
       <r>  15.7606  0.0000</r>
       <r>  16.0711  0.0000</r>
       <r>  16.8067  0.0000</r>
       <r>  16.8947  0.0000</r>
       <r>  18.6250  0.0000</r>
       <r>  19.9673  0.0000</r>
      </set>
      <set comment="kpoint 71">
       <r>   0.6535  1.0000</r>
       <r>   1.3734  1.0000</r>
       <r>   4.1970  1.0000</r>
       <r>   4.8487  1.0000</r>
       <r>   5.7031  1.0000</r>
       <r>   6.3488  1.0000</r>
       <r>   9.0924  0.0000</r>
       <r>   9.7793  0.0000</r>
       <r>  14.0688  0.0000</r>
       <r>  14.6067  0.0000</r>
       <r>  15.6896  0.0000</r>
       <r>  16.1984  0.0000</r>
       <r>  17.2129  0.0000</r>
       <r>  17.9007  0.0000</r>
       <r>  18.1290  0.0000</r>
       <r>  19.9267  0.0000</r>
      </set>
      <set comment="kpoint 72">
       <r>   0.5423  1.0000</r>
       <r>   2.6903  1.0000</r>
       <r>   2.6903  1.0000</r>
       <r>   4.7439  1.0000</r>
       <r>   5.5959  1.0000</r>
       <r>   7.6141  1.0000</r>
       <r>   7.6141  1.0000</r>
       <r>   9.6779  0.0000</r>
       <r>  14.0093  0.0000</r>
       <r>  15.8413  0.0000</r>
       <r>  15.8413  0.0000</r>
       <r>  16.8452  0.0000</r>
       <r>  16.8452  0.0000</r>
       <r>  17.8842  0.0000</r>
       <r>  17.9118  0.0000</r>
       <r>  19.8470  0.0000</r>
      </set>
      <set comment="kpoint 73">
       <r>   1.1526  1.0000</r>
       <r>   1.8695  1.0000</r>
       <r>   3.2876  1.0000</r>
       <r>   3.9840  1.0000</r>
       <r>   6.1362  1.0000</r>
       <r>   6.8207  1.0000</r>
       <r>   8.1983  1.0000</r>
       <r>   8.8870  1.0000</r>
       <r>  14.5675  0.0000</r>
       <r>  15.1985  0.0000</r>
       <r>  16.4982  0.0000</r>
       <r>  17.1617  0.0000</r>
       <r>  17.2855  0.0000</r>
       <r>  17.7914  0.0000</r>
       <r>  18.5503  0.0000</r>
       <r>  20.3122  0.0000</r>
      </set>
      <set comment="kpoint 74">
       <r>   1.7597  1.0000</r>
       <r>   2.4725  1.0000</r>
       <r>   2.4725  1.0000</r>
       <r>   3.1796  1.0000</r>
       <r>   6.7148  1.0000</r>
       <r>   7.4044  1.0000</r>
       <r>   7.4044  1.0000</r>
       <r>   8.0942  1.0000</r>
       <r>  15.1372  0.0000</r>
       <r>  15.7856  0.0000</r>
       <r>  15.7856  0.0000</r>
       <r>  16.4405  0.0000</r>
       <r>  18.9649  0.0000</r>
       <r>  18.9649  0.0000</r>
       <r>  18.9751  0.0000</r>
       <r>  20.2304  0.0000</r>
      </set>
      <set comment="kpoint 75">
       <r>  -0.0710  1.0000</r>
       <r>   3.5020  1.0000</r>
       <r>   3.5020  1.0000</r>
       <r>   3.5020  1.0000</r>
       <r>   7.0369  1.0000</r>
       <r>   7.0369  1.0000</r>
       <r>   7.0369  1.0000</r>
       <r>  10.4712  0.0000</r>
       <r>  14.7548  0.0000</r>
       <r>  14.7548  0.0000</r>
       <r>  14.7548  0.0000</r>
       <r>  17.3771  0.0000</r>
       <r>  17.3771  0.0000</r>
       <r>  17.3771  0.0000</r>
       <r>  19.2369  0.0000</r>
       <r>  19.2369  0.0000</r>
      </set>
      <set comment="kpoint 76">
       <r>   0.4311  1.0000</r>
       <r>   2.5810  1.0000</r>
       <r>   3.9816  1.0000</r>
       <r>   3.9816  1.0000</r>
       <r>   6.1435  1.0000</r>
       <r>   6.1435  1.0000</r>
       <r>   7.5149  1.0000</r>
       <r>   9.5808  0.0000</r>
       <r>  15.1968  0.0000</r>
       <r>  15.1968  0.0000</r>
       <r>  16.5143  0.0000</r>
       <r>  17.1630  0.0000</r>
       <r>  17.1630  0.0000</r>
       <r>  17.8074  0.0000</r>
       <r>  19.6738  0.0000</r>
       <r>  19.6884  0.0000</r>
      </set>
      <set comment="kpoint 77">
       <r>   1.0419  1.0000</r>
       <r>   1.7594  1.0000</r>
       <r>   4.5297  1.0000</r>
       <r>   4.5297  1.0000</r>
       <r>   5.3876  1.0000</r>
       <r>   5.3876  1.0000</r>
       <r>   8.0998  1.0000</r>
       <r>   8.7892  1.0000</r>
       <r>  15.6440  0.0000</r>
       <r>  15.6440  0.0000</r>
       <r>  16.6344  0.0000</r>
       <r>  16.6344  0.0000</r>
       <r>  18.3214  0.0000</r>
       <r>  18.3337  0.0000</r>
       <r>  18.9560  0.0000</r>
       <r>  20.0434  0.0000</r>
      </set>
      <set comment="kpoint 78">
       <r>   0.9311  1.0000</r>
       <r>   3.0702  1.0000</r>
       <r>   3.0702  1.0000</r>
       <r>   4.4232  1.0000</r>
       <r>   5.2812  1.0000</r>
       <r>   6.6165  1.0000</r>
       <r>   6.6165  1.0000</r>
       <r>   8.6871  1.0000</r>
       <r>  15.6752  0.0000</r>
       <r>  16.8864  0.0000</r>
       <r>  16.8864  0.0000</r>
       <r>  17.6650  0.0000</r>
       <r>  17.6650  0.0000</r>
       <r>  18.2464  0.0000</r>
       <r>  19.3457  0.0000</r>
       <r>  20.1785  0.0000</r>
      </set>
      <set comment="kpoint 79">
       <r>   1.5393  1.0000</r>
       <r>   2.2535  1.0000</r>
       <r>   3.6605  1.0000</r>
       <r>   4.3188  1.0000</r>
       <r>   5.1714  1.0000</r>
       <r>   5.8238  1.0000</r>
       <r>   7.2015  1.0000</r>
       <r>   7.8928  1.0000</r>
       <r>  16.2119  0.0000</r>
       <r>  16.7615  0.0000</r>
       <r>  17.6850  0.0000</r>
       <r>  18.0090  0.0000</r>
       <r>  18.1389  0.0000</r>
       <r>  18.6737  0.0000</r>
       <r>  18.8711  0.0000</r>
       <r>  20.5718  0.0000</r>
      </set>
      <set comment="kpoint 80">
       <r>   2.1441  1.0000</r>
       <r>   2.8534  1.0000</r>
       <r>   2.8534  1.0000</r>
       <r>   3.5531  1.0000</r>
       <r>   5.7167  1.0000</r>
       <r>   6.4047  1.0000</r>
       <r>   6.4047  1.0000</r>
       <r>   7.0964  1.0000</r>
       <r>  16.7768  0.0000</r>
       <r>  17.3932  0.0000</r>
       <r>  17.3932  0.0000</r>
       <r>  18.0274  0.0000</r>
       <r>  19.2949  0.0000</r>
       <r>  19.2949  0.0000</r>
       <r>  19.3084  0.0000</r>
       <r>  20.5545  0.0000</r>
      </set>
      <set comment="kpoint 81">
       <r>   1.4290  1.0000</r>
       <r>   3.5524  1.0000</r>
       <r>   3.5524  1.0000</r>
       <r>   3.5524  1.0000</r>
       <r>   5.7186  1.0000</r>
       <r>   5.7186  1.0000</r>
       <r>   5.7186  1.0000</r>
       <r>   7.7898  1.0000</r>
       <r>  17.4107  0.0000</r>
       <r>  17.4107  0.0000</r>
       <r>  17.4107  0.0000</r>
       <r>  18.6768  0.0000</r>
       <r>  18.6768  0.0000</r>
       <r>  18.6768  0.0000</r>
       <r>  20.5403  0.0000</r>
       <r>  20.5491  0.0000</r>
      </set>
      <set comment="kpoint 82">
       <r>   2.0344  1.0000</r>
       <r>   2.7444  1.0000</r>
       <r>   4.1058  1.0000</r>
       <r>   4.1058  1.0000</r>
       <r>   4.9565  1.0000</r>
       <r>   4.9565  1.0000</r>
       <r>   6.3002  1.0000</r>
       <r>   6.9927  1.0000</r>
       <r>  17.8786  0.0000</r>
       <r>  17.8786  0.0000</r>
       <r>  18.6131  0.0000</r>
       <r>  18.6131  0.0000</r>
       <r>  19.1700  0.0000</r>
       <r>  19.2031  0.0000</r>
       <r>  19.8245  0.0000</r>
       <r>  20.7127  0.0000</r>
      </set>
      <set comment="kpoint 83">
       <r>   2.6355  1.0000</r>
       <r>   3.3369  1.0000</r>
       <r>   3.3369  1.0000</r>
       <r>   3.9998  1.0000</r>
       <r>   4.8476  1.0000</r>
       <r>   5.5046  1.0000</r>
       <r>   5.5046  1.0000</r>
       <r>   6.1942  1.0000</r>
       <r>  18.4611  0.0000</r>
       <r>  18.9877  0.0000</r>
       <r>  18.9877  0.0000</r>
       <r>  19.5859  0.0000</r>
       <r>  19.7072  0.0000</r>
       <r>  19.7072  0.0000</r>
       <r>  19.7355  0.0000</r>
       <r>  20.9280  0.0000</r>
      </set>
      <set comment="kpoint 84">
       <r>   3.2288  1.0000</r>
       <r>   3.8933  1.0000</r>
       <r>   3.8933  1.0000</r>
       <r>   3.8933  1.0000</r>
       <r>   4.7391  1.0000</r>
       <r>   4.7391  1.0000</r>
       <r>   4.7391  1.0000</r>
       <r>   5.3976  1.0000</r>
       <r>  20.0932  0.0000</r>
       <r>  20.0932  0.0000</r>
       <r>  20.0932  0.0000</r>
       <r>  20.2514  0.0000</r>
       <r>  20.2514  0.0000</r>
       <r>  20.2514  0.0000</r>
       <r>  20.8196  0.0000</r>
       <r>  20.8196  0.0000</r>
      </set>
     </set>
    </set>
   </array>
  </eigenvalues>
 </calculation>
 <structure name="finalpos" >
  <crystal>
   <varray name="basis" >
    <v>       3.91618718      0.00000000      0.00000000</v>
    <v>       0.00000000      3.91618718      0.00000000</v>
    <v>       0.00000000      0.00000000      3.91618718</v>
   </varray>
   <i name="volume">     60.06069089</i>
   <varray name="rec_basis" >
    <v>       0.25535041      0.00000000      0.00000000</v>
    <v>       0.00000000      0.25535041      0.00000000</v>
    <v>       0.00000000      0.00000000      0.25535041</v>
   </varray>
  </crystal>
  <varray name="positions" >
   <v>       0.50000000      0.50000000      0.00000000</v>
   <v>       0.50000000      0.00000000      0.50000000</v>
   <v>       0.00000000      0.50000000      0.50000000</v>
   <v>       0.00000000      0.00000000      0.00000000</v>
  </varray>
 </structure>
</modeling>
