32   
1    

1    
  0.0100000000000000   0.0000000000000000   0.0000000000000000
  -0.0734982100   -0.0000000000    0.0000000000
   0.0040834800   -0.0000000000   -0.0000000000
   0.0007738900   -0.0000000000   -0.0000000000
   0.0006046300    0.0000000000    0.0000000000
   0.0007738900   -0.0000000000   -0.0000000000
   0.0006046300    0.0000000000    0.0000000000
   0.0009527600   -0.0000000000   -0.0000000000
  -0.0002907800    0.0000000000    0.0000000000
  -0.0017267400    0.0000641800   -0.0000641800
  -0.0008982600   -0.0000176700    0.0000176700
  -0.0017267400   -0.0000641800   -0.0000641800
  -0.0008982600    0.0000176700    0.0000176700
  -0.0017267400    0.0000641800    0.0000641800
  -0.0008982600   -0.0000176700   -0.0000176700
  -0.0017267400   -0.0000641800    0.0000641800
  -0.0008982600    0.0000176700   -0.0000176700
   0.0094850300    0.0000000000   -0.0108912300
   0.0096545300    0.0000000000    0.0111819500
  -0.0000327000   -0.0000000000    0.0003113500
   0.0000170700   -0.0000000000   -0.0003250700
   0.0094850300   -0.0000000000    0.0108912300
   0.0096545300    0.0000000000   -0.0111819500
  -0.0000327000   -0.0000000000   -0.0003113500
   0.0000170700   -0.0000000000    0.0003250700
   0.0094850300    0.0108912300   -0.0000000000
   0.0096545300   -0.0111819500    0.0000000000
   0.0094850300   -0.0108912300   -0.0000000000
   0.0096545300    0.0111819500    0.0000000000
  -0.0000327000   -0.0003113500   -0.0000000000
   0.0000170700    0.0003250700    0.0000000000
  -0.0000327000    0.0003113500   -0.0000000000
   0.0000170700   -0.0003250700   -0.0000000000
