  32  32   0   0
  0.1816515E+02  0.8345704E-09  0.8345704E-09  0.8345704E-09  0.5000000E-15
  1.000000000000000E-004
  CAR 
 unknown system                          
     14.38590788     -5.12822580  301      4.94851688      1.00000000
     -5.128  0.0000E+00  0.0000E+00
     -5.063  0.0000E+00  0.0000E+00
     -4.998  0.0000E+00  0.0000E+00
     -4.933  0.0000E+00  0.0000E+00
     -4.868  0.0000E+00  0.0000E+00
     -4.803  0.0000E+00  0.0000E+00
     -4.738  0.0000E+00  0.0000E+00
     -4.673  0.0000E+00  0.0000E+00
     -4.608  0.0000E+00  0.0000E+00
     -4.543  0.0000E+00  0.0000E+00
     -4.478  0.0000E+00  0.0000E+00
     -4.413  0.0000E+00  0.0000E+00
     -4.348  0.0000E+00  0.0000E+00
     -4.283  0.4271E-10  0.2778E-11
     -4.218  0.1002E+00  0.6520E-02
     -4.153  0.5493E+00  0.4225E-01
     -4.087  0.9136E+00  0.1017E+00
     -4.022  0.1453E+01  0.1962E+00
     -3.957  0.1446E+01  0.2902E+00
     -3.892  0.1557E+01  0.3918E+00
     -3.827  0.1991E+01  0.5213E+00
     -3.762  0.1222E+01  0.6011E+00
     -3.697  0.2606E+01  0.7706E+00
     -3.632  0.1735E+01  0.8834E+00
     -3.567  0.2794E+01  0.1065E+01
     -3.502  0.1949E+01  0.1192E+01
     -3.437  0.3335E+01  0.1409E+01
     -3.372  0.2583E+01  0.1577E+01
     -3.307  0.2914E+01  0.1767E+01
     -3.242  0.3844E+01  0.2017E+01
     -3.177  0.2636E+01  0.2188E+01
     -3.112  0.3724E+01  0.2430E+01
     -3.047  0.3743E+01  0.2674E+01
     -2.982  0.3657E+01  0.2912E+01
     -2.917  0.4237E+01  0.3188E+01
     -2.852  0.3667E+01  0.3427E+01
     -2.787  0.3740E+01  0.3670E+01
     -2.721  0.4889E+01  0.3988E+01
     -2.656  0.5075E+01  0.4319E+01
     -2.591  0.4556E+01  0.4615E+01
     -2.526  0.3907E+01  0.4870E+01
     -2.461  0.6477E+01  0.5292E+01
     -2.396  0.5613E+01  0.5657E+01
     -2.331  0.5591E+01  0.6021E+01
     -2.266  0.6816E+01  0.6465E+01
     -2.201  0.6697E+01  0.6901E+01
     -2.136  0.6549E+01  0.7327E+01
     -2.071  0.1019E+02  0.7991E+01
     -2.006  0.6119E+01  0.8390E+01
     -1.941  0.9109E+01  0.8983E+01
     -1.876  0.1134E+02  0.9720E+01
     -1.811  0.1738E+02  0.1085E+02
     -1.746  0.2068E+02  0.1220E+02
     -1.681  0.2363E+02  0.1373E+02
     -1.616  0.2058E+02  0.1507E+02
     -1.551  0.2520E+02  0.1671E+02
     -1.486  0.2767E+02  0.1851E+02
     -1.421  0.3704E+02  0.2092E+02
     -1.355  0.3906E+02  0.2347E+02
     -1.290  0.4172E+02  0.2618E+02
     -1.225  0.5583E+02  0.2982E+02
     -1.160  0.5443E+02  0.3336E+02
     -1.095  0.6712E+02  0.3773E+02
     -1.030  0.6448E+02  0.4192E+02
     -0.965  0.7011E+02  0.4649E+02
     -0.900  0.6056E+02  0.5043E+02
     -0.835  0.6364E+02  0.5457E+02
     -0.770  0.5983E+02  0.5847E+02
     -0.705  0.5594E+02  0.6211E+02
     -0.640  0.5736E+02  0.6584E+02
     -0.575  0.5802E+02  0.6962E+02
     -0.510  0.5065E+02  0.7291E+02
     -0.445  0.4834E+02  0.7606E+02
     -0.380  0.4519E+02  0.7900E+02
     -0.315  0.3867E+02  0.8152E+02
     -0.250  0.4204E+02  0.8425E+02
     -0.185  0.5960E+02  0.8814E+02
     -0.120  0.5092E+02  0.9145E+02
     -0.055  0.6942E+02  0.9597E+02
      0.010  0.6332E+02  0.1001E+03
      0.076  0.7206E+02  0.1048E+03
      0.141  0.7300E+02  0.1095E+03
      0.206  0.6923E+02  0.1140E+03
      0.271  0.6808E+02  0.1185E+03
      0.336  0.7237E+02  0.1232E+03
      0.401  0.6994E+02  0.1277E+03
      0.466  0.7456E+02  0.1326E+03
      0.531  0.7234E+02  0.1373E+03
      0.596  0.8530E+02  0.1428E+03
      0.661  0.8859E+02  0.1486E+03
      0.726  0.9292E+02  0.1547E+03
      0.791  0.1086E+03  0.1617E+03
      0.856  0.1412E+03  0.1709E+03
      0.921  0.1028E+03  0.1776E+03
      0.986  0.8251E+02  0.1830E+03
      1.051  0.7212E+02  0.1877E+03
      1.116  0.6175E+02  0.1917E+03
      1.181  0.5255E+02  0.1951E+03
      1.246  0.6952E+02  0.1997E+03
      1.311  0.5734E+02  0.2034E+03
      1.376  0.5429E+02  0.2069E+03
      1.442  0.5888E+02  0.2108E+03
      1.507  0.5936E+02  0.2146E+03
      1.572  0.6939E+02  0.2191E+03
      1.637  0.7123E+02  0.2238E+03
      1.702  0.7066E+02  0.2284E+03
      1.767  0.7225E+02  0.2331E+03
      1.832  0.8997E+02  0.2389E+03
      1.897  0.7400E+02  0.2437E+03
      1.962  0.6980E+02  0.2483E+03
      2.027  0.6526E+02  0.2525E+03
      2.092  0.6328E+02  0.2567E+03
      2.157  0.6187E+02  0.2607E+03
      2.222  0.6088E+02  0.2646E+03
      2.287  0.5723E+02  0.2684E+03
      2.352  0.5494E+02  0.2720E+03
      2.417  0.6199E+02  0.2760E+03
      2.482  0.5834E+02  0.2798E+03
      2.547  0.6391E+02  0.2839E+03
      2.612  0.5983E+02  0.2878E+03
      2.677  0.5925E+02  0.2917E+03
      2.742  0.8069E+02  0.2969E+03
      2.808  0.7467E+02  0.3018E+03
      2.873  0.1057E+03  0.3087E+03
      2.938  0.1024E+03  0.3154E+03
      3.003  0.1109E+03  0.3226E+03
      3.068  0.7329E+02  0.3273E+03
      3.133  0.5988E+02  0.3312E+03
      3.198  0.3980E+02  0.3338E+03
      3.263  0.3279E+02  0.3360E+03
      3.328  0.1814E+02  0.3372E+03
      3.393  0.6596E+01  0.3376E+03
      3.458  0.4823E+01  0.3379E+03
      3.523  0.9951E+01  0.3385E+03
      3.588  0.1495E+02  0.3395E+03
      3.653  0.7047E+01  0.3400E+03
      3.718  0.4652E+01  0.3403E+03
      3.783  0.1255E+02  0.3411E+03
      3.848  0.1115E+02  0.3418E+03
      3.913  0.7427E+01  0.3423E+03
      3.978  0.7394E+01  0.3428E+03
      4.043  0.1125E+02  0.3435E+03
      4.108  0.1086E+02  0.3442E+03
      4.174  0.6843E+01  0.3447E+03
      4.239  0.7681E+01  0.3452E+03
      4.304  0.1149E+02  0.3459E+03
      4.369  0.1082E+02  0.3466E+03
      4.434  0.8320E+01  0.3472E+03
      4.499  0.6310E+01  0.3476E+03
      4.564  0.8207E+01  0.3481E+03
      4.629  0.1537E+02  0.3491E+03
      4.694  0.8557E+01  0.3497E+03
      4.759  0.8047E+01  0.3502E+03
      4.824  0.8049E+01  0.3507E+03
      4.889  0.6061E+01  0.3511E+03
      4.954  0.1444E+02  0.3520E+03
      5.019  0.9963E+01  0.3527E+03
      5.084  0.9314E+01  0.3533E+03
      5.149  0.6521E+01  0.3537E+03
      5.214  0.7694E+01  0.3542E+03
      5.279  0.1107E+02  0.3550E+03
      5.344  0.9274E+01  0.3556E+03
      5.409  0.1323E+02  0.3564E+03
      5.474  0.6059E+01  0.3568E+03
      5.540  0.7276E+01  0.3573E+03
      5.605  0.1235E+02  0.3581E+03
      5.670  0.7308E+01  0.3586E+03
      5.735  0.9136E+01  0.3592E+03
      5.800  0.1018E+02  0.3598E+03
      5.865  0.6644E+01  0.3603E+03
      5.930  0.1161E+02  0.3610E+03
      5.995  0.8532E+01  0.3616E+03
      6.060  0.8630E+01  0.3621E+03
      6.125  0.8934E+01  0.3627E+03
      6.190  0.9539E+01  0.3633E+03
      6.255  0.1062E+02  0.3640E+03
      6.320  0.6665E+01  0.3645E+03
      6.385  0.9136E+01  0.3651E+03
      6.450  0.1034E+02  0.3657E+03
      6.515  0.7518E+01  0.3662E+03
      6.580  0.9810E+01  0.3669E+03
      6.645  0.1006E+02  0.3675E+03
      6.710  0.7699E+01  0.3680E+03
      6.775  0.8793E+01  0.3686E+03
      6.840  0.7389E+01  0.3691E+03
      6.905  0.6534E+01  0.3695E+03
      6.971  0.1118E+02  0.3702E+03
      7.036  0.7558E+01  0.3707E+03
      7.101  0.9540E+01  0.3713E+03
      7.166  0.8366E+01  0.3719E+03
      7.231  0.9858E+01  0.3725E+03
      7.296  0.4888E+01  0.3728E+03
      7.361  0.8129E+01  0.3734E+03
      7.426  0.9589E+01  0.3740E+03
      7.491  0.8163E+01  0.3745E+03
      7.556  0.6349E+01  0.3749E+03
      7.621  0.7710E+01  0.3754E+03
      7.686  0.7727E+01  0.3759E+03
      7.751  0.1528E+02  0.3769E+03
      7.816  0.2246E+02  0.3784E+03
      7.881  0.1049E+02  0.3791E+03
      7.946  0.9761E+01  0.3797E+03
      8.011  0.1760E+02  0.3809E+03
      8.076  0.1396E+02  0.3818E+03
      8.141  0.9187E+01  0.3824E+03
      8.206  0.9381E+01  0.3830E+03
      8.271  0.1008E+02  0.3836E+03
      8.337  0.1272E+02  0.3845E+03
      8.402  0.1141E+02  0.3852E+03
      8.467  0.1230E+02  0.3860E+03
      8.532  0.4041E+01  0.3863E+03
      8.597  0.1154E+02  0.3870E+03
      8.662  0.1005E+02  0.3877E+03
      8.727  0.1034E+02  0.3883E+03
      8.792  0.7422E+01  0.3888E+03
      8.857  0.9508E+01  0.3894E+03
      8.922  0.7071E+01  0.3899E+03
      8.987  0.9591E+01  0.3905E+03
      9.052  0.7319E+01  0.3910E+03
      9.117  0.8721E+01  0.3916E+03
      9.182  0.8618E+01  0.3921E+03
      9.247  0.9474E+01  0.3928E+03
      9.312  0.7386E+01  0.3932E+03
      9.377  0.9209E+01  0.3938E+03
      9.442  0.8792E+01  0.3944E+03
      9.507  0.1002E+02  0.3951E+03
      9.572  0.1282E+02  0.3959E+03
      9.637  0.1078E+02  0.3966E+03
      9.703  0.1260E+02  0.3974E+03
      9.768  0.9087E+01  0.3980E+03
      9.833  0.8600E+01  0.3986E+03
      9.898  0.1242E+02  0.3994E+03
      9.963  0.1524E+02  0.4004E+03
     10.028  0.1038E+02  0.4010E+03
     10.093  0.1251E+02  0.4019E+03
     10.158  0.1088E+02  0.4026E+03
     10.223  0.1452E+02  0.4035E+03
     10.288  0.1382E+02  0.4044E+03
     10.353  0.1180E+02  0.4052E+03
     10.418  0.1012E+02  0.4058E+03
     10.483  0.7663E+01  0.4063E+03
     10.548  0.1437E+02  0.4073E+03
     10.613  0.1216E+02  0.4081E+03
     10.678  0.1369E+02  0.4089E+03
     10.743  0.1037E+02  0.4096E+03
     10.808  0.8511E+01  0.4102E+03
     10.873  0.9051E+01  0.4108E+03
     10.938  0.1073E+02  0.4115E+03
     11.003  0.1389E+02  0.4124E+03
     11.069  0.7783E+01  0.4129E+03
     11.134  0.8160E+01  0.4134E+03
     11.199  0.7817E+01  0.4139E+03
     11.264  0.1057E+02  0.4146E+03
     11.329  0.1054E+02  0.4153E+03
     11.394  0.5373E+01  0.4156E+03
     11.459  0.1269E+02  0.4165E+03
     11.524  0.5850E+01  0.4168E+03
     11.589  0.8493E+01  0.4174E+03
     11.654  0.1154E+02  0.4181E+03
     11.719  0.1451E+02  0.4191E+03
     11.784  0.8537E+01  0.4196E+03
     11.849  0.9221E+01  0.4202E+03
     11.914  0.6912E+01  0.4207E+03
     11.979  0.1326E+02  0.4216E+03
     12.044  0.9344E+01  0.4222E+03
     12.109  0.1231E+02  0.4230E+03
     12.174  0.9416E+01  0.4236E+03
     12.239  0.1492E+02  0.4246E+03
     12.304  0.1377E+02  0.4255E+03
     12.369  0.1323E+02  0.4263E+03
     12.434  0.8193E+01  0.4268E+03
     12.500  0.5440E+01  0.4272E+03
     12.565  0.9082E+01  0.4278E+03
     12.630  0.1283E+02  0.4286E+03
     12.695  0.5887E+01  0.4290E+03
     12.760  0.6407E+01  0.4294E+03
     12.825  0.1138E+02  0.4302E+03
     12.890  0.7849E+01  0.4307E+03
     12.955  0.4457E+01  0.4310E+03
     13.020  0.3593E+01  0.4312E+03
     13.085  0.2623E+01  0.4314E+03
     13.150  0.3514E+01  0.4316E+03
     13.215  0.3170E+01  0.4318E+03
     13.280  0.5349E+00  0.4318E+03
     13.345  0.6653E-03  0.4318E+03
     13.410  0.3305E+00  0.4319E+03
     13.475  0.8091E+00  0.4319E+03
     13.540  0.1280E+01  0.4320E+03
     13.605  0.0000E+00  0.4320E+03
     13.670  0.0000E+00  0.4320E+03
     13.735  0.0000E+00  0.4320E+03
     13.800  0.0000E+00  0.4320E+03
     13.866  0.0000E+00  0.4320E+03
     13.931  0.0000E+00  0.4320E+03
     13.996  0.0000E+00  0.4320E+03
     14.061  0.0000E+00  0.4320E+03
     14.126  0.0000E+00  0.4320E+03
     14.191  0.0000E+00  0.4320E+03
     14.256  0.0000E+00  0.4320E+03
     14.321  0.0000E+00  0.4320E+03
     14.386  0.0000E+00  0.4320E+03
