   32   32    1    1
  0.1816515E+02  0.8345704E-09  0.8345704E-09  0.8345704E-09  0.5000000E-15
  1.000000000000000E-004
  CAR 
 unknown system                          
  352  196  216
 
  0.0000000E+00  0.0000000E+00  0.0000000E+00  0.5787037E-03
   1       -4.2412
   2       -1.9439
   3       -1.9405
   4       -1.9405
   5       -1.9405
   6       -1.9405
   7       -1.9372
   8       -1.8293
   9       -1.8293
  10       -1.8293
  11       -1.8293
  12       -1.5828
  13       -1.5828
  14       -1.5828
  15       -1.3081
  16       -1.3081
  17       -1.3081
  18       -0.6989
  19       -0.6974
  20       -0.6974
  21       -0.6956
  22       -0.6954
  23       -0.6954
  24       -0.6954
  25       -0.6954
  26       -0.6952
  27       -0.6934
  28       -0.6934
  29       -0.6919
  30       -0.5754
  31       -0.5732
  32       -0.5732
  33       -0.5732
  34       -0.5732
  35       -0.5710
  36       -0.4595
  37       -0.4573
  38       -0.4573
  39       -0.4573
  40       -0.4573
  41       -0.4551
  42        0.0783
  43        0.0811
  44        0.0811
  45        0.0823
  46        0.0824
  47        0.0824
  48        0.0824
  49        0.0824
  50        0.0824
  51        0.0835
  52        0.0835
  53        0.0862
  54        0.1440
  55        0.1440
  56        0.1464
  57        0.1464
  58        0.1464
  59        0.1464
  60        0.1464
  61        0.1465
  62        0.1465
  63        0.1467
  64        0.1489
  65        0.1490
  66        0.4025
  67        0.4063
  68        0.4064
  69        0.4064
  70        0.4066
  71        0.4066
  72        0.4066
  73        0.4066
  74        0.4069
  75        0.4069
  76        0.4069
  77        0.4107
  78        0.5146
  79        0.5146
  80        0.5146
  81        0.5146
  82        0.5147
  83        0.5147
  84        0.5147
  85        0.5147
  86        0.5434
  87        0.5434
  88        0.5434
  89        1.1987
  90        1.2009
  91        1.2010
  92        1.2010
  93        1.2010
  94        1.2032
  95        1.3766
  96        1.3775
  97        1.3787
  98        1.3787
  99        1.3793
 100        1.3793
 101        1.3793
 102        1.3793
 103        1.3800
 104        1.3800
 105        1.3813
 106        1.3819
 107        1.6551
 108        1.6551
 109        1.6578
 110        1.6578
 111        1.6580
 112        1.6580
 113        1.6580
 114        1.6580
 115        1.6582
 116        1.6582
 117        1.6608
 118        1.6608
 119        1.7908
 120        1.7927
 121        1.7927
 122        1.7927
 123        1.7927
 124        1.7945
 125        1.8986
 126        1.8986
 127        1.8989
 128        1.9002
 129        1.9012
 130        1.9016
 131        1.9017
 132        1.9017
 133        1.9017
 134        1.9018
 135        1.9022
 136        1.9030
 137        1.9050
 138        1.9050
 139        2.3950
 140        2.3964
 141        2.3964
 142        2.3964
 143        2.3964
 144        2.3977
 145        2.9325
 146        2.9325
 147        2.9325
 148        2.9732
 149        2.9732
 150        2.9732
 151        2.9732
 152        2.9732
 153        2.9732
 154        2.9732
 155        2.9733
 156        3.2591
 157        3.2594
 158        3.2594
 159        3.2594
 160        3.2594
 161        3.2594
 162        3.2610
 163        3.2611
 164        3.2611
 165        3.2611
 166        3.2611
 167        3.2614
 168        4.2772
 169        4.2773
 170        4.2773
 171        4.2773
 172        4.5879
 173        4.5885
 174        4.5885
 175        4.5892
 176        4.5897
 177        4.5897
 178        4.5897
 179        4.5897
 180        4.5902
 181        4.5910
 182        4.5910
 183        4.5916
 184        6.1591
 185        6.1591
 186        6.1591
 187        7.7151
 188        7.7151
 189        7.7151
 190        7.7152
 191        9.4342
 192        9.4344
 193        9.4345
 194        9.4345
 195        9.4345
 196        9.4347
 197       10.2751
 198       10.2752
 199       10.2752
 200       11.0659
 201       11.0659
 202       11.0690
 203       11.0690
 204       11.0695
 205       11.0695
 206       11.0695
 207       11.0696
 208       11.0700
 209       11.0700
 210       11.0732
 211       11.0732
 212       13.2186
 213       13.2193
 214       13.2199
 215       13.2207
 216       13.2217
 
  0.8333333E-01  0.0000000E+00  0.0000000E+00  0.1157407E-02
   1       -4.2220
   2       -2.2126
   3       -1.9267
   4       -1.9266
   5       -1.9266
   6       -1.9266
   7       -1.8187
   8       -1.8187
   9       -1.8187
  10       -1.8187
  11       -1.7091
  12       -1.5764
  13       -1.5702
  14       -1.5702
  15       -1.3013
  16       -1.2979
  17       -1.2979
  18       -0.7970
  19       -0.7970
  20       -0.7970
  21       -0.7969
  22       -0.7503
  23       -0.7503
  24       -0.7502
  25       -0.7502
  26       -0.6079
  27       -0.6079
  28       -0.6079
  29       -0.6079
  30       -0.5992
  31       -0.5991
  32       -0.5757
  33       -0.5642
  34       -0.5642
  35       -0.5642
  36       -0.5641
  37       -0.4515
  38       -0.4515
  39       -0.4515
  40       -0.4515
  41       -0.3365
  42       -0.0821
  43       -0.0821
  44        0.0363
  45        0.0364
  46        0.0364
  47        0.0365
  48        0.1178
  49        0.1184
  50        0.1184
  51        0.1184
  52        0.1276
  53        0.1277
  54        0.1277
  55        0.1280
  56        0.1358
  57        0.1359
  58        0.1359
  59        0.1359
  60        0.1475
  61        0.1475
  62        0.1475
  63        0.1479
  64        0.3466
  65        0.3467
  66        0.3467
  67        0.3467
  68        0.3927
  69        0.3927
  70        0.4341
  71        0.4362
  72        0.4362
  73        0.4363
  74        0.4372
  75        0.4372
  76        0.4372
  77        0.4394
  78        0.5103
  79        0.5103
  80        0.5103
  81        0.5104
  82        0.5231
  83        0.5231
  84        0.5231
  85        0.5231
  86        0.5340
  87        0.5517
  88        0.5517
  89        1.1502
  90        1.1502
  91        1.1502
  92        1.1502
  93        1.1842
  94        1.2951
  95        1.3385
  96        1.3386
  97        1.3386
  98        1.3386
  99        1.3791
 100        1.3791
 101        1.3791
 102        1.3792
 103        1.4268
 104        1.4268
 105        1.4269
 106        1.4270
 107        1.4930
 108        1.4930
 109        1.6574
 110        1.6574
 111        1.6575
 112        1.6575
 113        1.7005
 114        1.7005
 115        1.7005
 116        1.7005
 117        1.7968
 118        1.7969
 119        1.7969
 120        1.7970
 121        1.8215
 122        1.8215
 123        1.8215
 124        1.8216
 125        1.8218
 126        1.8218
 127        1.8310
 128        1.8310
 129        1.8902
 130        1.9042
 131        1.9459
 132        1.9459
 133        1.9459
 134        1.9460
 135        2.0009
 136        2.0009
 137        2.0010
 138        2.0010
 139        2.3295
 140        2.4087
 141        2.4087
 142        2.4087
 143        2.4087
 144        2.4639
 145        2.9051
 146        2.9051
 147        2.9051
 148        2.9051
 149        2.9184
 150        2.9184
 151        2.9277
 152        2.9611
 153        2.9611
 154        2.9611
 155        2.9612
 156        3.1939
 157        3.1939
 158        3.2419
 159        3.2419
 160        3.2420
 161        3.2420
 162        3.2421
 163        3.2421
 164        3.2591
 165        3.2594
 166        3.2610
 167        3.2613
 168        4.3029
 169        4.3029
 170        4.3030
 171        4.3032
 172        4.3081
 173        4.3082
 174        4.3084
 175        4.3084
 176        4.5892
 177        4.5892
 178        4.5892
 179        4.5892
 180        4.8920
 181        4.8920
 182        4.8920
 183        4.8921
 184        5.9926
 185        6.2384
 186        6.2384
 187        7.7822
 188        7.7822
 189        7.7822
 190        7.7822
 191        9.2820
 192        9.2820
 193        9.2820
 194        9.2820
 195        9.4470
 196        9.4470
 197       10.2591
 198       10.2592
 199       10.4750
 200       10.5638
 201       10.5638
 202       11.1050
 203       11.1050
 204       11.1050
 205       11.1050
 206       11.1345
 207       11.1345
 208       11.1345
 209       11.1346
 210       11.5673
 211       11.5673
 212       12.9008
 213       12.9010
 214       12.9028
 215       12.9043
 216       12.9058
 
  0.1666667E+00  0.0000000E+00  0.0000000E+00  0.1157407E-02
   1       -4.1645
   2       -2.5035
   3       -1.8853
   4       -1.8853
   5       -1.8853
   6       -1.8853
   7       -1.7869
   8       -1.7869
   9       -1.7869
  10       -1.7869
  11       -1.5574
  12       -1.5374
  13       -1.5328
  14       -1.5326
  15       -1.2811
  16       -1.2671
  17       -1.2671
  18       -0.9150
  19       -0.9150
  20       -0.9149
  21       -0.9149
  22       -0.8784
  23       -0.8784
  24       -0.8783
  25       -0.8783
  26       -0.6896
  27       -0.6718
  28       -0.6717
  29       -0.5377
  30       -0.5376
  31       -0.5376
  32       -0.5376
  33       -0.5305
  34       -0.5305
  35       -0.5305
  36       -0.5304
  37       -0.4343
  38       -0.4343
  39       -0.4343
  40       -0.4343
  41       -0.2922
  42       -0.2922
  43       -0.2151
  44       -0.0179
  45       -0.0178
  46       -0.0178
  47       -0.0178
  48        0.1057
  49        0.1057
  50        0.1057
  51        0.1058
  52        0.1434
  53        0.1443
  54        0.1443
  55        0.1443
  56        0.1504
  57        0.1505
  58        0.1505
  59        0.1513
  60        0.2086
  61        0.2087
  62        0.2087
  63        0.2087
  64        0.2607
  65        0.2607
  66        0.2607
  67        0.2607
  68        0.4465
  69        0.4465
  70        0.4466
  71        0.4466
  72        0.4976
  73        0.4976
  74        0.4976
  75        0.4977
  76        0.5061
  77        0.5468
  78        0.5468
  79        0.5469
  80        0.5470
  81        0.5484
  82        0.5485
  83        0.5485
  84        0.5485
  85        0.5766
  86        0.5766
  87        0.6557
  88        0.6557
  89        1.0392
  90        1.0392
  91        1.0392
  92        1.0392
  93        1.2213
  94        1.2439
  95        1.2440
  96        1.2440
  97        1.2440
  98        1.3375
  99        1.3375
 100        1.4238
 101        1.4239
 102        1.4239
 103        1.4239
 104        1.4872
 105        1.5072
 106        1.5072
 107        1.5073
 108        1.5074
 109        1.6561
 110        1.6561
 111        1.6561
 112        1.6561
 113        1.7606
 114        1.7606
 115        1.7607
 116        1.7607
 117        1.7796
 118        1.7797
 119        1.7797
 120        1.7797
 121        1.8080
 122        1.8080
 123        1.8080
 124        1.8080
 125        1.8606
 126        1.9024
 127        1.9025
 128        1.9166
 129        2.0084
 130        2.0084
 131        2.0505
 132        2.0506
 133        2.0506
 134        2.0506
 135        2.1184
 136        2.1184
 137        2.1184
 138        2.1184
 139        2.2644
 140        2.4532
 141        2.4532
 142        2.4532
 143        2.4532
 144        2.5310
 145        2.7239
 146        2.7239
 147        2.7239
 148        2.7239
 149        2.8763
 150        2.8763
 151        2.9135
 152        2.9252
 153        2.9252
 154        2.9252
 155        2.9252
 156        3.0160
 157        3.0160
 158        3.1864
 159        3.1864
 160        3.1864
 161        3.1864
 162        3.1905
 163        3.1905
 164        3.2592
 165        3.2595
 166        3.2609
 167        3.2613
 168        4.0418
 169        4.0418
 170        4.0418
 171        4.0418
 172        4.3630
 173        4.3630
 174        4.3631
 175        4.3631
 176        4.5875
 177        4.5875
 178        4.5875
 179        4.5875
 180        5.2210
 181        5.2210
 182        5.2210
 183        5.2210
 184        5.5677
 185        6.4577
 186        6.4577
 187        7.9782
 188        7.9782
 189        7.9782
 190        7.9782
 191        8.9062
 192        8.9062
 193        8.9062
 194        8.9062
 195        9.4840
 196        9.4840
 197       10.0541
 198       10.0541
 199       10.2124
 200       10.2124
 201       11.0003
 202       11.2099
 203       11.2099
 204       11.2099
 205       11.2099
 206       11.2696
 207       11.2696
 208       11.2697
 209       11.2697
 210       12.0526
 211       12.0526
 212       12.2953
 213       12.2953
 214       12.2954
 215       12.2954
 216       12.6184
 
  0.2500000E+00  0.0000000E+00  0.0000000E+00  0.1157407E-02
   1       -4.0691
   2       -2.7954
   3       -1.8176
   4       -1.8176
   5       -1.8176
   6       -1.8176
   7       -1.7343
   8       -1.7343
   9       -1.7343
  10       -1.7343
  11       -1.5276
  12       -1.4715
  13       -1.4714
  14       -1.4324
  15       -1.2475
  16       -1.2158
  17       -1.2158
  18       -1.0484
  19       -1.0484
  20       -1.0484
  21       -1.0483
  22       -1.0310
  23       -1.0310
  24       -1.0309
  25       -1.0309
  26       -0.7976
  27       -0.7783
  28       -0.7783
  29       -0.4952
  30       -0.4952
  31       -0.4952
  32       -0.4951
  33       -0.4834
  34       -0.4834
  35       -0.4604
  36       -0.4604
  37       -0.4604
  38       -0.4604
  39       -0.4061
  40       -0.4060
  41       -0.4060
  42       -0.4060
  43       -0.0955
  44       -0.0781
  45       -0.0781
  46       -0.0781
  47       -0.0781
  48        0.0609
  49        0.0609
  50        0.0609
  51        0.0609
  52        0.1540
  53        0.1549
  54        0.1549
  55        0.1550
  56        0.1606
  57        0.1606
  58        0.1608
  59        0.1608
  60        0.1609
  61        0.1612
  62        0.1612
  63        0.1619
  64        0.2678
  65        0.2678
  66        0.2678
  67        0.2678
  68        0.4564
  69        0.4565
  70        0.4565
  71        0.4565
  72        0.4604
  73        0.4774
  74        0.4774
  75        0.4774
  76        0.4775
  77        0.5903
  78        0.5903
  79        0.5903
  80        0.5904
  81        0.6180
  82        0.6180
  83        0.7433
  84        0.7433
  85        0.7433
  86        0.7433
  87        0.9137
  88        0.9137
  89        0.9137
  90        0.9137
  91        0.9344
  92        0.9344
  93        1.1308
  94        1.1309
  95        1.1309
  96        1.1309
  97        1.1931
  98        1.1931
  99        1.2923
 100        1.4983
 101        1.4983
 102        1.4983
 103        1.4983
 104        1.5993
 105        1.5993
 106        1.5993
 107        1.5993
 108        1.6543
 109        1.6543
 110        1.6543
 111        1.6543
 112        1.7165
 113        1.7165
 114        1.7166
 115        1.7166
 116        1.7856
 117        1.8123
 118        1.8204
 119        1.8205
 120        1.8205
 121        1.8207
 122        1.8352
 123        1.8352
 124        1.8352
 125        1.8352
 126        1.9367
 127        2.0219
 128        2.0219
 129        2.1797
 130        2.1798
 131        2.1798
 132        2.1798
 133        2.1887
 134        2.1887
 135        2.2023
 136        2.2516
 137        2.2516
 138        2.2516
 139        2.2516
 140        2.4722
 141        2.4722
 142        2.4722
 143        2.4723
 144        2.5449
 145        2.5449
 146        2.5449
 147        2.5449
 148        2.5964
 149        2.7639
 150        2.7639
 151        2.8071
 152        2.8071
 153        2.8665
 154        2.8665
 155        2.8665
 156        2.8666
 157        2.8901
 158        3.0982
 159        3.0982
 160        3.0982
 161        3.0982
 162        3.1074
 163        3.1074
 164        3.2593
 165        3.2596
 166        3.2608
 167        3.2612
 168        3.7870
 169        3.7870
 170        3.7870
 171        3.7870
 172        4.4278
 173        4.4278
 174        4.4279
 175        4.4279
 176        4.5840
 177        4.5840
 178        4.5840
 179        4.5840
 180        5.0099
 181        5.5823
 182        5.5823
 183        5.5823
 184        5.5823
 185        6.7783
 186        6.7783
 187        8.2892
 188        8.2892
 189        8.2893
 190        8.2893
 191        8.4252
 192        8.4252
 193        8.4252
 194        8.4252
 195        9.5439
 196        9.5439
 197        9.5447
 198        9.5447
 199       10.1390
 200       10.1390
 201       11.3802
 202       11.3802
 203       11.3802
 204       11.3802
 205       11.4089
 206       11.4089
 207       11.4089
 208       11.4089
 209       11.6298
 210       11.6299
 211       11.6299
 212       11.6299
 213       11.7269
 214       12.3713
 215       12.3714
 216       12.3715
 
  0.3333333E+00  0.0000000E+00  0.0000000E+00  0.1157407E-02
   1       -3.9368
   2       -3.0754
   3       -1.7256
   4       -1.7255
   5       -1.7255
   6       -1.7255
   7       -1.6612
   8       -1.6612
   9       -1.6612
  10       -1.6612
  11       -1.4898
  12       -1.3887
  13       -1.3879
  14       -1.3866
  15       -1.2010
  16       -1.1924
  17       -1.1924
  18       -1.1922
  19       -1.1922
  20       -1.1842
  21       -1.1842
  22       -1.1841
  23       -1.1841
  24       -1.1441
  25       -1.1441
  26       -0.9042
  27       -0.9042
  28       -0.8980
  29       -0.6552
  30       -0.6552
  31       -0.4408
  32       -0.4407
  33       -0.4407
  34       -0.4406
  35       -0.3983
  36       -0.3983
  37       -0.3983
  38       -0.3983
  39       -0.3676
  40       -0.3676
  41       -0.3676
  42       -0.3676
  43       -0.1415
  44       -0.1415
  45       -0.1415
  46       -0.1414
  47        0.0086
  48        0.0086
  49        0.0086
  50        0.0086
  51        0.0203
  52        0.0611
  53        0.0611
  54        0.0611
  55        0.0611
  56        0.1597
  57        0.1604
  58        0.1604
  59        0.1604
  60        0.1696
  61        0.1696
  62        0.1696
  63        0.1703
  64        0.3107
  65        0.3107
  66        0.3107
  67        0.3107
  68        0.3982
  69        0.4507
  70        0.4508
  71        0.4508
  72        0.4508
  73        0.4809
  74        0.4809
  75        0.4809
  76        0.4810
  77        0.6481
  78        0.6482
  79        0.6482
  80        0.6482
  81        0.6756
  82        0.6756
  83        0.7929
  84        0.7929
  85        0.7929
  86        0.7929
  87        0.9943
  88        0.9943
  89        0.9943
  90        0.9944
  91        1.0161
  92        1.0161
  93        1.0161
  94        1.0161
  95        1.0611
  96        1.0611
  97        1.2271
  98        1.2271
  99        1.3821
 100        1.5858
 101        1.5859
 102        1.5859
 103        1.5859
 104        1.6531
 105        1.6531
 106        1.6531
 107        1.6532
 108        1.6851
 109        1.6851
 110        1.6852
 111        1.6852
 112        1.6867
 113        1.6867
 114        1.6868
 115        1.6868
 116        1.7471
 117        1.8279
 118        1.8280
 119        1.8280
 120        1.8280
 121        1.8443
 122        1.8443
 123        1.8444
 124        1.8444
 125        1.9645
 126        2.1436
 127        2.1636
 128        2.1639
 129        2.1829
 130        2.1837
 131        2.1837
 132        2.1837
 133        2.1842
 134        2.3156
 135        2.3156
 136        2.3156
 137        2.3157
 138        2.3682
 139        2.3682
 140        2.3965
 141        2.3965
 142        2.3965
 143        2.3965
 144        2.4714
 145        2.4714
 146        2.6589
 147        2.6883
 148        2.6883
 149        2.6883
 150        2.6883
 151        2.7127
 152        2.7127
 153        2.7869
 154        2.7869
 155        2.7869
 156        2.7870
 157        2.8581
 158        2.9832
 159        2.9832
 160        2.9833
 161        2.9833
 162        2.9964
 163        2.9964
 164        3.2594
 165        3.2598
 166        3.2606
 167        3.2611
 168        3.5416
 169        3.5417
 170        3.5417
 171        3.5417
 172        4.4027
 173        4.4819
 174        4.4820
 175        4.4820
 176        4.4820
 177        4.5776
 178        4.5776
 179        4.5776
 180        4.5777
 181        5.9800
 182        5.9800
 183        5.9800
 184        5.9800
 185        7.1661
 186        7.1661
 187        7.9074
 188        7.9074
 189        7.9074
 190        7.9074
 191        8.6971
 192        8.6971
 193        8.6971
 194        8.6971
 195        9.0395
 196        9.0395
 197        9.6242
 198        9.6242
 199       10.0452
 200       10.0452
 201       10.9683
 202       10.9683
 203       10.9683
 204       10.9683
 205       11.5397
 206       11.5397
 207       11.5398
 208       11.5398
 209       11.6099
 210       11.6099
 211       11.6099
 212       11.6099
 213       12.1571
 214       12.1571
 215       12.1571
 216       12.1571
 
  0.4166667E+00  0.0000000E+00  0.0000000E+00  0.1157407E-02
   1       -3.7688
   2       -3.3347
   3       -1.6122
   4       -1.6121
   5       -1.6121
   6       -1.6121
   7       -1.5683
   8       -1.5683
   9       -1.5683
  10       -1.5683
  11       -1.4486
  12       -1.3856
  13       -1.3393
  14       -1.3393
  15       -1.3392
  16       -1.3392
  17       -1.3277
  18       -1.3276
  19       -1.3276
  20       -1.3276
  21       -1.2849
  22       -1.2849
  23       -1.1420
  24       -1.0521
  25       -1.0521
  26       -1.0368
  27       -1.0368
  28       -0.9897
  29       -0.8075
  30       -0.8075
  31       -0.3834
  32       -0.3832
  33       -0.3832
  34       -0.3832
  35       -0.3527
  36       -0.3527
  37       -0.3527
  38       -0.3525
  39       -0.3202
  40       -0.3201
  41       -0.3201
  42       -0.3201
  43       -0.2048
  44       -0.2048
  45       -0.2048
  46       -0.2048
  47       -0.0388
  48       -0.0388
  49       -0.0388
  50       -0.0387
  51       -0.0206
  52       -0.0206
  53       -0.0206
  54       -0.0205
  55        0.1298
  56        0.1650
  57        0.1659
  58        0.1659
  59        0.1660
  60        0.1721
  61        0.1722
  62        0.1722
  63        0.1731
  64        0.3211
  65        0.3487
  66        0.3487
  67        0.3487
  68        0.3487
  69        0.4194
  70        0.4194
  71        0.4195
  72        0.4195
  73        0.5267
  74        0.5268
  75        0.5268
  76        0.5268
  77        0.6851
  78        0.6851
  79        0.6851
  80        0.6852
  81        0.7212
  82        0.7212
  83        0.7212
  84        0.7212
  85        0.7493
  86        0.7493
  87        0.9072
  88        0.9072
  89        0.9072
  90        0.9072
  91        0.9426
  92        0.9426
  93        1.2754
  94        1.2754
  95        1.2754
  96        1.2754
  97        1.4796
  98        1.5315
  99        1.5315
 100        1.6538
 101        1.6538
 102        1.6538
 103        1.6538
 104        1.6671
 105        1.6682
 106        1.6682
 107        1.6682
 108        1.6682
 109        1.6738
 110        1.6738
 111        1.6738
 112        1.6740
 113        1.7535
 114        1.7536
 115        1.7536
 116        1.7536
 117        1.8124
 118        1.8125
 119        1.8126
 120        1.8126
 121        1.8230
 122        1.8230
 123        1.8231
 124        1.8232
 125        1.8796
 126        1.8796
 127        1.8796
 128        1.8796
 129        1.9997
 130        2.0900
 131        2.1603
 132        2.1603
 133        2.3139
 134        2.3139
 135        2.4492
 136        2.4492
 137        2.4492
 138        2.4492
 139        2.5432
 140        2.5432
 141        2.5483
 142        2.5483
 143        2.5483
 144        2.5484
 145        2.5958
 146        2.5958
 147        2.6631
 148        2.6888
 149        2.6888
 150        2.6888
 151        2.6888
 152        2.7175
 153        2.8181
 154        2.8484
 155        2.8484
 156        2.8485
 157        2.8485
 158        2.8620
 159        2.8620
 160        2.8717
 161        2.8717
 162        2.8718
 163        2.8718
 164        3.2594
 165        3.2600
 166        3.2604
 167        3.2610
 168        3.3055
 169        3.3055
 170        3.3055
 171        3.3055
 172        3.7924
 173        4.5217
 174        4.5218
 175        4.5218
 176        4.5218
 177        4.5667
 178        4.5667
 179        4.5667
 180        4.5668
 181        6.4156
 182        6.4156
 183        6.4156
 184        6.4156
 185        7.3881
 186        7.3881
 187        7.3881
 188        7.3881
 189        7.5983
 190        7.5983
 191        8.5431
 192        8.5431
 193        9.1836
 194        9.1836
 195        9.1836
 196        9.1836
 197        9.7207
 198        9.7207
 199        9.9387
 200        9.9388
 201       10.3317
 202       10.3317
 203       10.3317
 204       10.3317
 205       11.6707
 206       11.6707
 207       11.6708
 208       11.6708
 209       11.8918
 210       11.8918
 211       11.8918
 212       11.8918
 213       11.9722
 214       11.9722
 215       11.9722
 216       11.9722
 
  0.5000000E+00  0.0000000E+00  0.0000000E+00  0.5787037E-03
   1       -3.5689
   2       -3.5655
   3       -1.4851
   4       -1.4825
   5       -1.4822
   6       -1.4822
   7       -1.4809
   8       -1.4809
   9       -1.4805
  10       -1.4782
  11       -1.4582
  12       -1.4582
  13       -1.4576
  14       -1.4576
  15       -1.4556
  16       -1.4554
  17       -1.4548
  18       -1.4548
  19       -1.4114
  20       -1.4096
  21       -1.1680
  22       -1.1670
  23       -1.1652
  24       -1.1642
  25       -1.0726
  26       -1.0700
  27       -0.9412
  28       -0.9412
  29       -0.9384
  30       -0.9384
  31       -0.3473
  32       -0.3449
  33       -0.3449
  34       -0.3449
  35       -0.3448
  36       -0.3448
  37       -0.3448
  38       -0.3425
  39       -0.2670
  40       -0.2666
  41       -0.2666
  42       -0.2655
  43       -0.2648
  44       -0.2638
  45       -0.2638
  46       -0.2634
  47       -0.0586
  48       -0.0583
  49       -0.0583
  50       -0.0576
  51       -0.0573
  52       -0.0567
  53       -0.0567
  54       -0.0563
  55        0.1676
  56        0.1697
  57        0.1697
  58        0.1700
  59        0.1706
  60        0.1710
  61        0.1710
  62        0.1729
  63        0.2305
  64        0.2314
  65        0.3842
  66        0.3846
  67        0.3847
  68        0.3847
  69        0.3853
  70        0.3853
  71        0.3854
  72        0.3857
  73        0.5942
  74        0.5942
  75        0.5943
  76        0.5951
  77        0.5957
  78        0.5964
  79        0.5966
  80        0.5966
  81        0.8057
  82        0.8064
  83        0.8064
  84        0.8078
  85        0.8084
  86        0.8097
  87        0.8097
  88        0.8104
  89        0.8372
  90        0.8372
  91        0.8397
  92        0.8397
  93        1.5723
  94        1.5726
  95        1.5732
  96        1.5732
  97        1.5738
  98        1.5738
  99        1.5739
 100        1.5746
 101        1.5762
 102        1.5778
 103        1.6575
 104        1.6575
 105        1.6578
 106        1.6581
 107        1.6583
 108        1.6584
 109        1.6588
 110        1.6588
 111        1.7505
 112        1.7517
 113        1.7517
 114        1.7519
 115        1.7526
 116        1.7528
 117        1.7528
 118        1.7540
 119        1.7982
 120        1.7986
 121        1.7993
 122        1.7993
 123        1.7996
 124        1.7996
 125        1.8004
 126        1.8008
 127        1.8434
 128        1.8434
 129        1.8453
 130        1.8453
 131        2.0407
 132        2.0428
 133        2.4604
 134        2.4605
 135        2.4610
 136        2.4611
 137        2.5736
 138        2.5742
 139        2.5742
 140        2.5746
 141        2.5755
 142        2.5758
 143        2.5758
 144        2.5765
 145        2.6993
 146        2.6993
 147        2.7008
 148        2.7009
 149        2.7014
 150        2.7015
 151        2.7027
 152        2.7027
 153        2.7090
 154        2.7090
 155        2.7100
 156        2.7100
 157        2.7707
 158        2.7711
 159        3.0793
 160        3.0799
 161        3.0799
 162        3.0805
 163        3.0805
 164        3.0811
 165        3.0811
 166        3.0818
 167        3.2055
 168        3.2061
 169        3.2595
 170        3.2602
 171        3.2603
 172        3.2610
 173        4.5472
 174        4.5479
 175        4.5485
 176        4.5485
 177        4.5496
 178        4.5496
 179        4.5502
 180        4.5509
 181        6.8848
 182        6.8848
 183        6.8867
 184        6.8871
 185        6.8871
 186        6.8875
 187        6.8893
 188        6.8893
 189        8.0590
 190        8.0590
 191        8.0619
 192        8.0619
 193        9.7301
 194        9.7301
 195        9.7322
 196        9.7323
 197        9.7334
 198        9.7335
 199        9.7356
 200        9.7356
 201        9.8276
 202        9.8279
 203        9.8279
 204        9.8282
 205       11.8106
 206       11.8116
 207       11.8116
 208       11.8119
 209       11.8124
 210       11.8126
 211       11.8126
 212       11.8137
 213       12.2172
 214       12.2173
 215       12.2181
 216       12.2192
 
  0.0000000E+00  0.8333333E-01  0.0000000E+00  0.2314815E-02
   1       -4.2220
   2       -2.2126
   3       -1.9292
   4       -1.9266
   5       -1.9266
   6       -1.9241
   7       -1.8187
   8       -1.8187
   9       -1.8186
  10       -1.8186
  11       -1.7091
  12       -1.5764
  13       -1.5702
  14       -1.5702
  15       -1.3013
  16       -1.2979
  17       -1.2979
  18       -0.7990
  19       -0.7970
  20       -0.7969
  21       -0.7949
  22       -0.7514
  23       -0.7504
  24       -0.7501
  25       -0.7491
  26       -0.6097
  27       -0.6079
  28       -0.6079
  29       -0.6062
  30       -0.5992