       N       E                     dE             d eps       ncg     rms          rms(c)
DAV:   1     0.473326670201E+04    0.47333E+04   -0.20826E+05 84672   0.219E+03
DAV:   2     0.163714065748E+03   -0.45696E+04   -0.43699E+04 84672   0.561E+02
DAV:   3    -0.103512184154E+03   -0.26723E+03   -0.24548E+03 92912   0.148E+02
DAV:   4    -0.112438503334E+03   -0.89263E+01   -0.87904E+01 90736   0.254E+01
DAV:   5    -0.112585494998E+03   -0.14699E+00   -0.14659E+00 91224   0.282E+00    0.162E+01
DAV:   6    -0.105229829154E+03    0.73557E+01   -0.19501E+01 89512   0.155E+01    0.425E+00
DAV:   7    -0.104770168110E+03    0.45966E+00   -0.13116E+00 94120   0.334E+00    0.172E+00
DAV:   8    -0.104683257789E+03    0.86910E-01   -0.67009E-02 87752   0.935E-01    0.168E-01
DAV:   9    -0.104683343524E+03   -0.85735E-04   -0.73237E-03 94856   0.276E-01    0.955E-02
DAV:  10    -0.104683317775E+03    0.25750E-04   -0.61174E-04 88064   0.760E-02    0.203E-02
DAV:  11    -0.104683319784E+03   -0.20091E-05   -0.39870E-05 91400   0.230E-02    0.317E-03
DAV:  12    -0.104683322598E+03   -0.28141E-05   -0.13028E-06 89672   0.392E-03    0.107E-03
DAV:  13    -0.104683321762E+03    0.83520E-06   -0.49323E-08 83752   0.853E-04    0.474E-04
DAV:  14    -0.104683321138E+03    0.62428E-06   -0.10901E-08 49704   0.375E-04    0.111E-04
DAV:  15    -0.104683321125E+03    0.13355E-07   -0.12723E-09 47040   0.166E-04    0.611E-05
DAV:  16    -0.104683321120E+03    0.51696E-08   -0.14025E-10 46312   0.631E-05
   1 F= -.10468332E+03 E0= -.10468308E+03  d E =-.489219E-03
