 vasp.4.6.28 25Jul05 complex 
 executed on             LinuxIFC date 2017.01.12  12:38:49
 running on    8 nodes
 distr:  one band on    1 nodes,    8 groups


--------------------------------------------------------------------------------------------------------


 INCAR:
 POTCAR:   PAW_PBE Au 06Sep2000                   
 POTCAR:   PAW_PBE Au 06Sep2000                   
   VRHFIN =Au: s1d10                                                            
   LEXCH  = PE                                                                  
   EATOM  =   926.0567 eV,   68.0632 Ry                                         
                                                                                
   TITEL  = PAW_PBE Au 06Sep2000                                                
   LULTRA =        F    use ultrasoft PP ?                                      
   IUNSCR =        1    unscreen: 0-lin 1-nonlin 2-no                           
   RPACOR =    2.330    partial core radius                                     
   POMASS =  196.966; ZVAL   =   11.000    mass and valenz                      
   RCORE  =    2.500    outmost cutoff radius                                   
   RWIGS  =    2.840; RWIGS  =    1.503    wigner-seitz radius (au A)           
   ENMAX  =  229.948; ENMIN  =  172.461 eV                                      
   RCLOC  =    1.964    cutoff for local pot                                    
   LCOR   =        T    correct aug charges                                     
   LPAW   =        T    paw PP                                                  
   EAUG   =  356.670                                                            
   DEXC   =    -.025                                                            
   RMAX   =    3.041    core radius for proj-oper                               
   RAUG   =    1.300    factor for augmentation sphere                          
   RDEP   =    2.598    radius for radial grids                                 
   QCUT   =   -4.111; QGAM   =    8.222    optimization parameters              
                                                                                
   Description                                                                  
     l     E      TYP  RCUT    TYP  RCUT                                        
     2   .000     23  2.500                                                     
     2   .000     23  2.500                                                     
     0   .000     23  2.500                                                     
     0   .000     23  2.500                                                     
     1  -.200     23  2.500                                                     
     1   .000     23  2.500                                                     
     3   .000      7   .000                                                     
  local pseudopotential read in
  partial core-charges read in
  atomic valenz-charges read in
  non local Contribution for L=           2  read in
    real space projection operators read in
  non local Contribution for L=           2  read in
    real space projection operators read in
  non local Contribution for L=           0  read in
    real space projection operators read in
  non local Contribution for L=           0  read in
    real space projection operators read in
  non local Contribution for L=           1  read in
    real space projection operators read in
  non local Contribution for L=           1  read in
    real space projection operators read in
    PAW grid and wavefunctions read in
 
   number of l-projection  operators is LMAX  =           6
   number of lm-projection operators is LMMAX =          18
 

 ----------------------------------------------------------------------------- 
|                                                                             |
|  ADVICE TO THIS USER RUNNING 'VASP/VAMP'   (HEAR YOUR MASTER'S VOICE ...):  |
|                                                                             |
|      You have a (more or less) 'large supercell' and for larger cells       |
|      it might be more efficient to use real space projection operators      |
|      So try LREAL= Auto  in the INCAR   file.                               |
|      Mind: If you want to do an extremely accurate calculations keep the    |
|      reciprocal projection scheme          (i.e. LREAL=.FALSE.)             |
|                                                                             |
 ----------------------------------------------------------------------------- 

 PAW_PBE Au 06Sep2000                   :
 energy of atom  1       EATOM= -926.0567
 kinetic energy error for atom=    0.0008 (will be added to EATOM!!)
 
 EXHCAR: internal setup
 exchange correlation table for  LEXCH =        8
   RHO(1)=    0.500       N(1)  =     2000
   RHO(2)=  100.500       N(2)  =     4000
 
 POSCAR: Au                                      
  positions in direct lattice
  No initial velocities read in
 


--------------------------------------------------------------------------------------------------------


 ion  position               nearest neighbor table
   1  0.001  0.000  0.000-   9 2.94  11 2.94  17 2.94  21 2.94  25 2.95  27 2.95  29 2.95  31 2.95
                            18 2.96  22 2.96  10 2.96  12 2.96
   2  0.500  0.000  0.000-   9 2.95  10 2.95  11 2.95  12 2.95  17 2.95  18 2.95  21 2.95  22 2.95
                            26 2.95  28 2.95  30 2.95  32 2.95
   3  0.000  0.500  0.000-   9 2.95  10 2.95  11 2.95  12 2.95  19 2.95  20 2.95  23 2.95  24 2.95
                            25 2.95  27 2.95  29 2.95  31 2.95
   4  0.500  0.500  0.000-   9 2.95  10 2.95  11 2.95  12 2.95  19 2.95  20 2.95  23 2.95  24 2.95
                            26 2.95  28 2.95  30 2.95  32 2.95
   5  0.000  0.000  0.500-  13 2.95  14 2.95  15 2.95  16 2.95  17 2.95  18 2.95  21 2.95  22 2.95
                            25 2.95  27 2.95  29 2.95  31 2.95
   6  0.500  0.000  0.500-  13 2.95  14 2.95  15 2.95  16 2.95  17 2.95  18 2.95  21 2.95  22 2.95
                            26 2.95  28 2.95  30 2.95  32 2.95
   7  0.000  0.500  0.500-  13 2.95  14 2.95  15 2.95  16 2.95  19 2.95  20 2.95  23 2.95  24 2.95
                            25 2.95  27 2.95  29 2.95  31 2.95
   8  0.500  0.500  0.500-  13 2.95  14 2.95  15 2.95  16 2.95  19 2.95  20 2.95  23 2.95  24 2.95
                            26 2.95  28 2.95  30 2.95  32 2.95
   9  0.250  0.250  0.000-   1 2.94   2 2.95   3 2.95   4 2.95  17 2.95  19 2.95  21 2.95  23 2.95
                            25 2.95  26 2.95  29 2.95  30 2.95
  10  0.750  0.250  0.000-   2 2.95   3 2.95   4 2.95  18 2.95  20 2.95  22 2.95  24 2.95  25 2.95
                            26 2.95  29 2.95  30 2.95   1 2.96
  11  0.250  0.750  0.000-   1 2.94   2 2.95   3 2.95   4 2.95  17 2.95  19 2.95  21 2.95  23 2.95
                            27 2.95  28 2.95  31 2.95  32 2.95
  12  0.750  0.750  0.000-   2 2.95   3 2.95   4 2.95  18 2.95  20 2.95  22 2.95  24 2.95  27 2.95
                            28 2.95  31 2.95  32 2.95   1 2.96
  13  0.250  0.250  0.500-   5 2.95   6 2.95   7 2.95   8 2.95  17 2.95  19 2.95  21 2.95  23 2.95
                            25 2.95  26 2.95  29 2.95  30 2.95
  14  0.750  0.250  0.500-   5 2.95   6 2.95   7 2.95   8 2.95  18 2.95  20 2.95  22 2.95  24 2.95
                            25 2.95  26 2.95  29 2.95  30 2.95
  15  0.250  0.750  0.500-   5 2.95   6 2.95   7 2.95   8 2.95  17 2.95  19 2.95  21 2.95  23 2.95
                            27 2.95  28 2.95  31 2.95  32 2.95
  16  0.750  0.750  0.500-   5 2.95   6 2.95   7 2.95   8 2.95  18 2.95  20 2.95  22 2.95  24 2.95
                            27 2.95  28 2.95  31 2.95  32 2.95
  17  0.250  0.000  0.250-   1 2.94   2 2.95   5 2.95   6 2.95   9 2.95  11 2.95  13 2.95  15 2.95
                            25 2.95  26 2.95  27 2.95  28 2.95
  18  0.750  0.000  0.250-   2 2.95   5 2.95   6 2.95  10 2.95  12 2.95  14 2.95  16 2.95  25 2.95
                            26 2.95  27 2.95  28 2.95   1 2.96
  19  0.250  0.500  0.250-   3 2.95   4 2.95   7 2.95   8 2.95   9 2.95  11 2.95  13 2.95  15 2.95
                            25 2.95  26 2.95  27 2.95  28 2.95
  20  0.750  0.500  0.250-   3 2.95   4 2.95   7 2.95   8 2.95  10 2.95  12 2.95  14 2.95  16 2.95
                            25 2.95  26 2.95  27 2.95  28 2.95
  21  0.250  0.000  0.750-   1 2.94   2 2.95   5 2.95   6 2.95   9 2.95  11 2.95  13 2.95  15 2.95
                            29 2.95  30 2.95  31 2.95  32 2.95
  22  0.750  0.000  0.750-   2 2.95   5 2.95   6 2.95  10 2.95  12 2.95  14 2.95  16 2.95  29 2.95
                            30 2.95  31 2.95  32 2.95   1 2.96
  23  0.250  0.500  0.750-   3 2.95   4 2.95   7 2.95   8 2.95   9 2.95  11 2.95  13 2.95  15 2.95
                            29 2.95  30 2.95  31 2.95  32 2.95
  24  0.750  0.500  0.750-   3 2.95   4 2.95   7 2.95   8 2.95  10 2.95  12 2.95  14 2.95  16 2.95
                            29 2.95  30 2.95  31 2.95  32 2.95
  25  0.000  0.250  0.250-   3 2.95   5 2.95   7 2.95   9 2.95  10 2.95  13 2.95  14 2.95  17 2.95
                            18 2.95  19 2.95  20 2.95   1 2.95
  26  0.500  0.250  0.250-   2 2.95   4 2.95   6 2.95   8 2.95   9 2.95  10 2.95  13 2.95  14 2.95
                            17 2.95  18 2.95  19 2.95  20 2.95
  27  0.000  0.750  0.250-   3 2.95   5 2.95   7 2.95  11 2.95  12 2.95  15 2.95  16 2.95  17 2.95
                            18 2.95  19 2.95  20 2.95   1 2.95
  28  0.500  0.750  0.250-   2 2.95   4 2.95   6 2.95   8 2.95  11 2.95  12 2.95  15 2.95  16 2.95
                            17 2.95  18 2.95  19 2.95  20 2.95
  29  0.000  0.250  0.750-   3 2.95   5 2.95   7 2.95   9 2.95  10 2.95  13 2.95  14 2.95  21 2.95
                            22 2.95  23 2.95  24 2.95   1 2.95
  30  0.500  0.250  0.750-   2 2.95   4 2.95   6 2.95   8 2.95   9 2.95  10 2.95  13 2.95  14 2.95
                            21 2.95  22 2.95  23 2.95  24 2.95
  31  0.000  0.750  0.750-   3 2.95   5 2.95   7 2.95  11 2.95  12 2.95  15 2.95  16 2.95  21 2.95
                            22 2.95  23 2.95  24 2.95   1 2.95
  32  0.500  0.750  0.750-   2 2.95   4 2.95   6 2.95   8 2.95  11 2.95  12 2.95  15 2.95  16 2.95
                            21 2.95  22 2.95  23 2.95  24 2.95
 
  LATTYP: Found a simple cubic cell.
 ALAT       =     8.3457038046
  
  Lattice vectors:
  
 A1 = (   8.3457038046,   0.0000000000,   0.0000000000)
 A2 = (   0.0000000000,   8.3457038046,   0.0000000000)
 A3 = (   0.0000000000,   0.0000000000,   8.3457038046)
 Subroutine PRICEL returns:
 Original cell was already a primitive cell.
 

Analysis of symmetry for initial positions (statically):

 Routine SETGRP: Setting up the symmetry group for a 
 simple cubic supercell.


 Subroutine GETGRP returns: Found  8 space group operations
 (whereof  8 operations were pure point group operations)
 out of a pool of 48 trial point group operations.


The static configuration has the point symmetry C_4v.

Analysis of symmetry for dynamics (positions and initial velocities):

 Subroutine DYNSYM returns: Found  8 space group operations
 (whereof  8 operations were pure point group operations)
 out of a pool of  8 trial space group operations
 (whereof  8 operations were pure point group operations)
 and found also     1 'primitive' translations


The dynamic configuration has the point symmetry C_4v.
 
 
 KPOINTS: Automatic mesh                          

Automatic generation of k-mesh.
 
 Subroutine IBZKPT returns following result:
 ===========================================
 
 Found    196 irreducible k-points:
 
 Following reciprocal coordinates:
            Coordinates               Weight
  0.000000  0.000000  0.000000      1.000000
  0.083333  0.000000  0.000000      2.000000
  0.166667  0.000000  0.000000      2.000000
  0.250000  0.000000  0.000000      2.000000
  0.333333  0.000000  0.000000      2.000000
  0.416667  0.000000  0.000000      2.000000
  0.500000  0.000000  0.000000      1.000000
  0.000000  0.083333  0.000000      4.000000
  0.083333  0.083333  0.000000      8.000000
  0.166667  0.083333  0.000000      8.000000
  0.250000  0.083333  0.000000      8.000000
  0.333333  0.083333  0.000000      8.000000
  0.416667  0.083333  0.000000      8.000000
  0.500000  0.083333  0.000000      4.000000
  0.000000  0.166667  0.000000      4.000000
  0.083333  0.166667  0.000000      8.000000
  0.166667  0.166667  0.000000      8.000000
  0.250000  0.166667  0.000000      8.000000
  0.333333  0.166667  0.000000      8.000000
  0.416667  0.166667  0.000000      8.000000
  0.500000  0.166667  0.000000      4.000000
  0.000000  0.250000  0.000000      4.000000
  0.083333  0.250000  0.000000      8.000000
  0.166667  0.250000  0.000000      8.000000
  0.250000  0.250000  0.000000      8.000000
  0.333333  0.250000  0.000000      8.000000
  0.416667  0.250000  0.000000      8.000000
  0.500000  0.250000  0.000000      4.000000
  0.000000  0.333333  0.000000      4.000000
  0.083333  0.333333  0.000000      8.000000
  0.166667  0.333333  0.000000      8.000000
  0.250000  0.333333  0.000000      8.000000
  0.333333  0.333333  0.000000      8.000000
  0.416667  0.333333  0.000000      8.000000
  0.500000  0.333333  0.000000      4.000000
  0.000000  0.416667  0.000000      4.000000
  0.083333  0.416667  0.000000      8.000000
  0.166667  0.416667  0.000000      8.000000
  0.250000  0.416667  0.000000      8.000000
  0.333333  0.416667  0.000000      8.000000
  0.416667  0.416667  0.000000      8.000000
  0.500000  0.416667  0.000000      4.000000
  0.000000  0.500000  0.000000      2.000000
  0.083333  0.500000  0.000000      4.000000
  0.166667  0.500000  0.000000      4.000000
  0.250000  0.500000  0.000000      4.000000
  0.333333  0.500000  0.000000      4.000000
  0.416667  0.500000  0.000000      4.000000
  0.500000  0.500000  0.000000      2.000000
  0.000000  0.083333  0.083333      4.000000
  0.083333  0.083333  0.083333      8.000000
  0.166667  0.083333  0.083333      8.000000
  0.250000  0.083333  0.083333      8.000000
  0.333333  0.083333  0.083333      8.000000
  0.416667  0.083333  0.083333      8.000000
  0.500000  0.083333  0.083333      4.000000
  0.000000  0.166667  0.083333      8.000000
  0.083333  0.166667  0.083333     16.000000
  0.166667  0.166667  0.083333     16.000000
  0.250000  0.166667  0.083333     16.000000
  0.333333  0.166667  0.083333     16.000000
  0.416667  0.166667  0.083333     16.000000
  0.500000  0.166667  0.083333      8.000000
  0.000000  0.250000  0.083333      8.000000
  0.083333  0.250000  0.083333     16.000000
  0.166667  0.250000  0.083333     16.000000
  0.250000  0.250000  0.083333     16.000000
  0.333333  0.250000  0.083333     16.000000
  0.416667  0.250000  0.083333     16.000000
  0.500000  0.250000  0.083333      8.000000
  0.000000  0.333333  0.083333      8.000000
  0.083333  0.333333  0.083333     16.000000
  0.166667  0.333333  0.083333     16.000000
  0.250000  0.333333  0.083333     16.000000
  0.333333  0.333333  0.083333     16.000000
  0.416667  0.333333  0.083333     16.000000
  0.500000  0.333333  0.083333      8.000000
  0.000000  0.416667  0.083333      8.000000
  0.083333  0.416667  0.083333     16.000000
  0.166667  0.416667  0.083333     16.000000
  0.250000  0.416667  0.083333     16.000000
  0.333333  0.416667  0.083333     16.000000
  0.416667  0.416667  0.083333     16.000000
  0.500000  0.416667  0.083333      8.000000
  0.000000  0.500000  0.083333      4.000000
  0.083333  0.500000  0.083333      8.000000
  0.166667  0.500000  0.083333      8.000000
  0.250000  0.500000  0.083333      8.000000
  0.333333  0.500000  0.083333      8.000000
  0.416667  0.500000  0.083333      8.000000
  0.500000  0.500000  0.083333      4.000000
  0.000000  0.166667  0.166667      4.000000
  0.083333  0.166667  0.166667      8.000000
  0.166667  0.166667  0.166667      8.000000
  0.250000  0.166667  0.166667      8.000000
  0.333333  0.166667  0.166667      8.000000
  0.416667  0.166667  0.166667      8.000000
  0.500000  0.166667  0.166667      4.000000
  0.000000  0.250000  0.166667      8.000000
  0.083333  0.250000  0.166667     16.000000
  0.166667  0.250000  0.166667     16.000000
  0.250000  0.250000  0.166667     16.000000
  0.333333  0.250000  0.166667     16.000000
  0.416667  0.250000  0.166667     16.000000
  0.500000  0.250000  0.166667      8.000000
  0.000000  0.333333  0.166667      8.000000
  0.083333  0.333333  0.166667     16.000000
  0.166667  0.333333  0.166667     16.000000
  0.250000  0.333333  0.166667     16.000000
  0.333333  0.333333  0.166667     16.000000
  0.416667  0.333333  0.166667     16.000000
  0.500000  0.333333  0.166667      8.000000
  0.000000  0.416667  0.166667      8.000000
  0.083333  0.416667  0.166667     16.000000
  0.166667  0.416667  0.166667     16.000000
  0.250000  0.416667  0.166667     16.000000
  0.333333  0.416667  0.166667     16.000000
  0.416667  0.416667  0.166667     16.000000
  0.500000  0.416667  0.166667      8.000000
  0.000000  0.500000  0.166667      4.000000
  0.083333  0.500000  0.166667      8.000000
  0.166667  0.500000  0.166667      8.000000
  0.250000  0.500000  0.166667      8.000000
  0.333333  0.500000  0.166667      8.000000
  0.416667  0.500000  0.166667      8.000000
  0.500000  0.500000  0.166667      4.000000
  0.000000  0.250000  0.250000      4.000000
  0.083333  0.250000  0.250000      8.000000
  0.166667  0.250000  0.250000      8.000000
  0.250000  0.250000  0.250000      8.000000
  0.333333  0.250000  0.250000      8.000000
  0.416667  0.250000  0.250000      8.000000
  0.500000  0.250000  0.250000      4.000000
  0.000000  0.333333  0.250000      8.000000
  0.083333  0.333333  0.250000     16.000000
  0.166667  0.333333  0.250000     16.000000
  0.250000  0.333333  0.250000     16.000000
  0.333333  0.333333  0.250000     16.000000
  0.416667  0.333333  0.250000     16.000000
  0.500000  0.333333  0.250000      8.000000
  0.000000  0.416667  0.250000      8.000000
  0.083333  0.416667  0.250000     16.000000
  0.166667  0.416667  0.250000     16.000000
  0.250000  0.416667  0.250000     16.000000
  0.333333  0.416667  0.250000     16.000000
  0.416667  0.416667  0.250000     16.000000
  0.500000  0.416667  0.250000      8.000000
  0.000000  0.500000  0.250000      4.000000
  0.083333  0.500000  0.250000      8.000000
  0.166667  0.500000  0.250000      8.000000
  0.250000  0.500000  0.250000      8.000000
  0.333333  0.500000  0.250000      8.000000
  0.416667  0.500000  0.250000      8.000000
  0.500000  0.500000  0.250000      4.000000
  0.000000  0.333333  0.333333      4.000000
  0.083333  0.333333  0.333333      8.000000
  0.166667  0.333333  0.333333      8.000000
  0.250000  0.333333  0.333333      8.000000
  0.333333  0.333333  0.333333      8.000000
  0.416667  0.333333  0.333333      8.000000
  0.500000  0.333333  0.333333      4.000000
  0.000000  0.416667  0.333333      8.000000
  0.083333  0.416667  0.333333     16.000000
  0.166667  0.416667  0.333333     16.000000
  0.250000  0.416667  0.333333     16.000000
  0.333333  0.416667  0.333333     16.000000
  0.416667  0.416667  0.333333     16.000000
  0.500000  0.416667  0.333333      8.000000
  0.000000  0.500000  0.333333      4.000000
  0.083333  0.500000  0.333333      8.000000
  0.166667  0.500000  0.333333      8.000000
  0.250000  0.500000  0.333333      8.000000
  0.333333  0.500000  0.333333      8.000000
  0.416667  0.500000  0.333333      8.000000
  0.500000  0.500000  0.333333      4.000000
  0.000000  0.416667  0.416667      4.000000
  0.083333  0.416667  0.416667      8.000000
  0.166667  0.416667  0.416667      8.000000
  0.250000  0.416667  0.416667      8.000000
  0.333333  0.416667  0.416667      8.000000
  0.416667  0.416667  0.416667      8.000000
  0.500000  0.416667  0.416667      4.000000
  0.000000  0.500000  0.416667      4.000000
  0.083333  0.500000  0.416667      8.000000
  0.166667  0.500000  0.416667      8.000000
  0.250000  0.500000  0.416667      8.000000
  0.333333  0.500000  0.416667      8.000000
  0.416667  0.500000  0.416667      8.000000
  0.500000  0.500000  0.416667      4.000000
  0.000000  0.500000  0.500000      1.000000
  0.083333  0.500000  0.500000      2.000000
  0.166667  0.500000  0.500000      2.000000
  0.250000  0.500000  0.500000      2.000000
  0.333333  0.500000  0.500000      2.000000
  0.416667  0.500000  0.500000      2.000000
  0.500000  0.500000  0.500000      1.000000
 
 Following cartesian coordinates:
            Coordinates               Weight
  0.000000  0.000000  0.000000      1.000000
  0.009985  0.000000  0.000000      2.000000
  0.019970  0.000000  0.000000      2.000000
  0.029956  0.000000  0.000000      2.000000
  0.039941  0.000000  0.000000      2.000000
  0.049926  0.000000  0.000000      2.000000
  0.059911  0.000000  0.000000      1.000000
  0.000000  0.009985  0.000000      4.000000
  0.009985  0.009985  0.000000      8.000000
  0.019970  0.009985  0.000000      8.000000
  0.029956  0.009985  0.000000      8.000000
  0.039941  0.009985  0.000000      8.000000
  0.049926  0.009985  0.000000      8.000000
  0.059911  0.009985  0.000000      4.000000
  0.000000  0.019970  0.000000      4.000000
  0.009985  0.019970  0.000000      8.000000
  0.019970  0.019970  0.000000      8.000000
  0.029956  0.019970  0.000000      8.000000
  0.039941  0.019970  0.000000      8.000000
  0.049926  0.019970  0.000000      8.000000
  0.059911  0.019970  0.000000      4.000000
  0.000000  0.029956  0.000000      4.000000
  0.009985  0.029956  0.000000      8.000000
  0.019970  0.029956  0.000000      8.000000
  0.029956  0.029956  0.000000      8.000000
  0.039941  0.029956  0.000000      8.000000
  0.049926  0.029956  0.000000      8.000000
  0.059911  0.029956  0.000000      4.000000
  0.000000  0.039941  0.000000      4.000000
  0.009985  0.039941  0.000000      8.000000
  0.019970  0.039941  0.000000      8.000000
  0.029956  0.039941  0.000000      8.000000
  0.039941  0.039941  0.000000      8.000000
  0.049926  0.039941  0.000000      8.000000
  0.059911  0.039941  0.000000      4.000000
  0.000000  0.049926  0.000000      4.000000
  0.009985  0.049926  0.000000      8.000000
  0.019970  0.049926  0.000000      8.000000
  0.029956  0.049926  0.000000      8.000000
  0.039941  0.049926  0.000000      8.000000
  0.049926  0.049926  0.000000      8.000000
  0.059911  0.049926  0.000000      4.000000
  0.000000  0.059911  0.000000      2.000000
  0.009985  0.059911  0.000000      4.000000
  0.019970  0.059911  0.000000      4.000000
  0.029956  0.059911  0.000000      4.000000
  0.039941  0.059911  0.000000      4.000000
  0.049926  0.059911  0.000000      4.000000
  0.059911  0.059911  0.000000      2.000000
  0.000000  0.009985  0.009985      4.000000
  0.009985  0.009985  0.009985      8.000000
  0.019970  0.009985  0.009985      8.000000
  0.029956  0.009985  0.009985      8.000000
  0.039941  0.009985  0.009985      8.000000
  0.049926  0.009985  0.009985      8.000000
  0.059911  0.009985  0.009985      4.000000
  0.000000  0.019970  0.009985      8.000000
  0.009985  0.019970  0.009985     16.000000
  0.019970  0.019970  0.009985     16.000000
  0.029956  0.019970  0.009985     16.000000
  0.039941  0.019970  0.009985     16.000000
  0.049926  0.019970  0.009985     16.000000
  0.059911  0.019970  0.009985      8.000000
  0.000000  0.029956  0.009985      8.000000
  0.009985  0.029956  0.009985     16.000000
  0.019970  0.029956  0.009985     16.000000
  0.029956  0.029956  0.009985     16.000000
  0.039941  0.029956  0.009985     16.000000
  0.049926  0.029956  0.009985     16.000000
  0.059911  0.029956  0.009985      8.000000
  0.000000  0.039941  0.009985      8.000000
  0.009985  0.039941  0.009985     16.000000
  0.019970  0.039941  0.009985     16.000000
  0.029956  0.039941  0.009985     16.000000
  0.039941  0.039941  0.009985     16.000000
  0.049926  0.039941  0.009985     16.000000
  0.059911  0.039941  0.009985      8.000000
  0.000000  0.049926  0.009985      8.000000
  0.009985  0.049926  0.009985     16.000000
  0.019970  0.049926  0.009985     16.000000
  0.029956  0.049926  0.009985     16.000000
  0.039941  0.049926  0.009985     16.000000
  0.049926  0.049926  0.009985     16.000000
  0.059911  0.049926  0.009985      8.000000
  0.000000  0.059911  0.009985      4.000000
  0.009985  0.059911  0.009985      8.000000
  0.019970  0.059911  0.009985      8.000000
  0.029956  0.059911  0.009985      8.000000
  0.039941  0.059911  0.009985      8.000000
  0.049926  0.059911  0.009985      8.000000
  0.059911  0.059911  0.009985      4.000000
  0.000000  0.019970  0.019970      4.000000
  0.009985  0.019970  0.019970      8.000000
  0.019970  0.019970  0.019970      8.000000
  0.029956  0.019970  0.019970      8.000000
  0.039941  0.019970  0.019970      8.000000
  0.049926  0.019970  0.019970      8.000000
  0.059911  0.019970  0.019970      4.000000
  0.000000  0.029956  0.019970      8.000000
  0.009985  0.029956  0.019970     16.000000
  0.019970  0.029956  0.019970     16.000000
  0.029956  0.029956  0.019970     16.000000
  0.039941  0.029956  0.019970     16.000000
  0.049926  0.029956  0.019970     16.000000
  0.059911  0.029956  0.019970      8.000000
  0.000000  0.039941  0.019970      8.000000
  0.009985  0.039941  0.019970     16.000000
  0.019970  0.039941  0.019970     16.000000
  0.029956  0.039941  0.019970     16.000000
  0.039941  0.039941  0.019970     16.000000
  0.049926  0.039941  0.019970     16.000000
  0.059911  0.039941  0.019970      8.000000
  0.000000  0.049926  0.019970      8.000000
  0.009985  0.049926  0.019970     16.000000
  0.019970  0.049926  0.019970     16.000000
  0.029956  0.049926  0.019970     16.000000
  0.039941  0.049926  0.019970     16.000000
  0.049926  0.049926  0.019970     16.000000
  0.059911  0.049926  0.019970      8.000000
  0.000000  0.059911  0.019970      4.000000
  0.009985  0.059911  0.019970      8.000000
  0.019970  0.059911  0.019970      8.000000
  0.029956  0.059911  0.019970      8.000000
  0.039941  0.059911  0.019970      8.000000
  0.049926  0.059911  0.019970      8.000000
  0.059911  0.059911  0.019970      4.000000
  0.000000  0.029956  0.029956      4.000000
  0.009985  0.029956  0.029956      8.000000
  0.019970  0.029956  0.029956      8.000000
  0.029956  0.029956  0.029956      8.000000
  0.039941  0.029956  0.029956      8.000000
  0.049926  0.029956  0.029956      8.000000
  0.059911  0.029956  0.029956      4.000000
  0.000000  0.039941  0.029956      8.000000
  0.009985  0.039941  0.029956     16.000000
  0.019970  0.039941  0.029956     16.000000
  0.029956  0.039941  0.029956     16.000000
  0.039941  0.039941  0.029956     16.000000
  0.049926  0.039941  0.029956     16.000000
  0.059911  0.039941  0.029956      8.000000
  0.000000  0.049926  0.029956      8.000000
  0.009985  0.049926  0.029956     16.000000
  0.019970  0.049926  0.029956     16.000000
  0.029956  0.049926  0.029956     16.000000
  0.039941  0.049926  0.029956     16.000000
  0.049926  0.049926  0.029956     16.000000
  0.059911  0.049926  0.029956      8.000000
  0.000000  0.059911  0.029956      4.000000
  0.009985  0.059911  0.029956      8.000000
  0.019970  0.059911  0.029956      8.000000
  0.029956  0.059911  0.029956      8.000000
  0.039941  0.059911  0.029956      8.000000
  0.049926  0.059911  0.029956      8.000000
  0.059911  0.059911  0.029956      4.000000
  0.000000  0.039941  0.039941      4.000000
  0.009985  0.039941  0.039941      8.000000
  0.019970  0.039941  0.039941      8.000000
  0.029956  0.039941  0.039941      8.000000
  0.039941  0.039941  0.039941      8.000000
  0.049926  0.039941  0.039941      8.000000
  0.059911  0.039941  0.039941      4.000000
  0.000000  0.049926  0.039941      8.000000
  0.009985  0.049926  0.039941     16.000000
  0.019970  0.049926  0.039941     16.000000
  0.029956  0.049926  0.039941     16.000000
  0.039941  0.049926  0.039941     16.000000
  0.049926  0.049926  0.039941     16.000000
  0.059911  0.049926  0.039941      8.000000
  0.000000  0.059911  0.039941      4.000000
  0.009985  0.059911  0.039941      8.000000
  0.019970  0.059911  0.039941      8.000000
  0.029956  0.059911  0.039941      8.000000
  0.039941  0.059911  0.039941      8.000000
  0.049926  0.059911  0.039941      8.000000
  0.059911  0.059911  0.039941      4.000000
  0.000000  0.049926  0.049926      4.000000
  0.009985  0.049926  0.049926      8.000000
  0.019970  0.049926  0.049926      8.000000
  0.029956  0.049926  0.049926      8.000000
  0.039941  0.049926  0.049926      8.000000
  0.049926  0.049926  0.049926      8.000000
  0.059911  0.049926  0.049926      4.000000
  0.000000  0.059911  0.049926      4.000000
  0.009985  0.059911  0.049926      8.000000
  0.019970  0.059911  0.049926      8.000000
  0.029956  0.059911  0.049926      8.000000
  0.039941  0.059911  0.049926      8.000000
  0.049926  0.059911  0.049926      8.000000
  0.059911  0.059911  0.049926      4.000000
  0.000000  0.059911  0.059911      1.000000
  0.009985  0.059911  0.059911      2.000000
  0.019970  0.059911  0.059911      2.000000
  0.029956  0.059911  0.059911      2.000000
  0.039941  0.059911  0.059911      2.000000
  0.049926  0.059911  0.059911      2.000000
  0.059911  0.059911  0.059911      1.000000
 


--------------------------------------------------------------------------------------------------------




 Dimension of arrays:
   k-Points           NKPTS =    196   number of bands    NBANDS=    216
   number of dos      NEDOS =    301   number of ions     NIONS =     32
   non local maximal  LDIM  =      6   non local SUM 2l+1 LMDIM =     18
   total plane-waves  NPLWV = 512000
   max r-space proj   IRMAX =      1   max aug-charges    IRDMAX= 431062
   dimension x,y,z NGX =    80 NGY =   80 NGZ =   80
   dimension x,y,z NGXF=   160 NGYF=  160 NGZF=  160
   support grid    NGXF=   320 NGYF=  320 NGZF=  320
   ions per type =              32
 NGX,Y,Z   is equivalent  to a cutoff of  15.94, 15.94, 15.94 a.u.
 NGXF,Y,Z  is equivalent  to a cutoff of  31.87, 31.87, 31.87 a.u.


 I would recommend the setting:
   dimension x,y,z NGX =    75 NGY =   75 NGZ =   75
 SYSTEM =  unknown system                          
 POSCAR =  Au                                      

 Startparameter for this run:
   NWRITE =      2    write-flag & timer
   PREC   = accura    medium, high low
   ISTART =      0    job   : 0-new  1-cont  2-samecut
   ICHARG =      2    charge: 1-file 2-atom 10-const
   ISPIN  =      1    spin polarized calculation?
   LNONCOLLINEAR =      F non collinear calculations
   LSORBIT =      F    spin-orbit coupling
   INIWAV =      1    electr: 0-lowe 1-rand  2-diag
   LASPH  =      F    aspherical Exc in radial PAW
   METAGGA=      F    non-selfconsistent MetaGGA calc.

 Electronic Relaxation 1
   ENCUT  =  750.0 eV  55.12 Ry    7.42 a.u.  18.64 18.64 18.64*2*pi/ulx,y,z
   ENINI  =  750.0     initial cutoff
   ENAUG  =  356.7 eV  augmentation charge cutoff
   NELM   =     60;   NELMIN=  2; NELMDL=  0     # of ELM steps 
   EDIFF  = 0.1E-07   stopping-criterion for ELM
   LREAL  =      F    real-space projection
   LCOMPAT=      F    compatible to vasp.4.4
   LREAL_COMPAT= F    compatible to vasp.4.5.1-3
   GGA_COMPAT  = T    GGA compatible to vasp.4.4-vasp.4.6
   LMAXPAW     = -100 max onsite density
   LMAXMIX     =    2 max onsite mixed and CHGCAR
   VOSKOWN=      0    Vosko Wilk Nusair interpolation
   ROPT   =    0.00000
 Ionic relaxation
   EDIFFG = 0.1E-06   stopping-criterion for IOM
   NSW    =      0    number of steps for IOM
   NBLOCK =      1;   KBLOCK =      1    inner block; outer block 
   IBRION =     -1    ionic relax: 0-MD 1-quasi-New 2-CG
   NFREE  =      0    steps in history (QN), initial steepest desc. (CG)
   ISIF   =      2    stress and relaxation
   IWAVPR =     10    prediction:  0-non 1-charg 2-wave 3-comb
   ISYM   =      2    0-nonsym 1-usesym 2-fastsym
   LCORR  =      T    Harris-Foulkes like correction to forces

   POTIM  =   0.50    time-step for ionic-motion
   TEIN   =    0.0    initial temperature
   TEBEG  =    0.0;   TEEND  =   0.0 temperature during run
   SMASS  =  -3.00    Nose mass-parameter (am)
   estimated Nose-frequenzy (Omega)   =  0.10E-29 period in steps =****** mass=  -0.159E-26a.u.
   NPACO  =    256;   APACO  = 16.0  distance and # of slots for P.C.
   PSTRESS=    0.0 pullay stress

  Mass of Ions in am
   POMASS = 196.97
  Ionic Valenz
   ZVAL   =  11.00
  Atomic Wigner-Seitz radii
   RWIGS  =  -1.00
   NELECT =     352.0000    total number of electrons
   NUPDOWN=      -1.0000    fix difference up-down

 DOS related values:
   EMIN   =  10.00;   EMAX   =-10.00  energy-range for DOS
   ISMEAR =     0;   SIGMA  =   0.01  broadening in eV -4-tet -1-fermi 0-gaus

 Electronic relaxation 2 (details)
   IALGO  =     38    algorithm
   LDIAG  =      T    sub-space diagonalisation
   IMIX   =      4    mixing-type and parameters
     AMIX     =   0.40;   BMIX     =  1.00
     AMIX_MAG =   1.60;   BMIX_MAG =  1.00
     AMIN     =   0.10
     WC   =   100.;   INIMIX=   1;  MIXPRE=   1

 Intra band minimization:
   WEIMIN = 0.0000     energy-eigenvalue tresh-hold
   EBREAK =  0.12E-10  absolut break condition
   DEPER  =   0.30     relativ break condition  

   TIME   =   0.10     timestep for ELM

  volume/ion in A,a.u.               =      18.17       122.58
  Fermi-wavevector in a.u.,eV,Ry     =   1.385031 26.100195  1.918310

 Second variation
   LSECVAR=     F    do a second variation
 
 Write flags
   LWAVE  =      F    write WAVECAR
   LCHARG =      F    write CHGCAR
   LVTOT  =      F    write LOCPOT, local potential
   LELF   =      F    write electronic localiz. function (ELF)
   LORBIT =      0    0 simple, 1 ext, 2 COOP (PROOUT)


 Dipole corrections
   IDIPOL =      0    1-x, 2-y, 3-z
   LDIPOL =      F    correct potential



--------------------------------------------------------------------------------------------------------


 Static calculation
 charge density will be updated during run
 non-spin polarized calculation
 Variant of blocked Davidson
 Davidson routine will perform the subspace rotation
 performe sub-space diagonalisation
    after iterative eigenvector-optimisation
 modified Broyden-mixing scheme, WC =      100.0
 initial mixing is a Kerker type mixing with AMIX =  0.4000 and BMIX =      1.0000
 Hartree-type preconditioning will be used
 using additional bands           40
 reciprocal scheme for non local part
 use partial core corrections
 calculate Harris-corrections to forces 
   (improved forces if not selfconsistent)
 use gradient corrections 
 use of overlap-Matrix (Vanderbilt PP)
 Gauss-broadening in eV      SIGMA  =   0.01


--------------------------------------------------------------------------------------------------------


  energy-cutoff  :      750.00
  volume of cell :      581.28
      direct lattice vectors                 reciprocal lattice vectors
     8.345703805  0.000000000  0.000000000     0.119822129  0.000000000  0.000000000
     0.000000000  8.345703805  0.000000000     0.000000000  0.119822129  0.000000000
     0.000000000  0.000000000  8.345703805     0.000000000  0.000000000  0.119822129

  length of vectors
     8.345703805  8.345703805  8.345703805     0.119822129  0.119822129  0.119822129


 
 k-points in units of 2pi/SCALE and weight: Automatic mesh                          
   0.00000000  0.00000000  0.00000000       0.001
   0.00998518  0.00000000  0.00000000       0.001
   0.01997035  0.00000000  0.00000000       0.001
   0.02995553  0.00000000  0.00000000       0.001
   0.03994071  0.00000000  0.00000000       0.001
   0.04992589  0.00000000  0.00000000       0.001
   0.05991106  0.00000000  0.00000000       0.001
   0.00000000  0.00998518  0.00000000       0.002
   0.00998518  0.00998518  0.00000000       0.005
   0.01997035  0.00998518  0.00000000       0.005
   0.02995553  0.00998518  0.00000000       0.005
   0.03994071  0.00998518  0.00000000       0.005
   0.04992589  0.00998518  0.00000000       0.005
   0.05991106  0.00998518  0.00000000       0.002
   0.00000000  0.01997035  0.00000000       0.002
   0.00998518  0.01997035  0.00000000       0.005
   0.01997035  0.01997035  0.00000000       0.005
   0.02995553  0.01997035  0.00000000       0.005
   0.03994071  0.01997035  0.00000000       0.005
   0.04992589  0.01997035  0.00000000       0.005
   0.05991106  0.01997035  0.00000000       0.002
   0.00000000  0.02995553  0.00000000       0.002
   0.00998518  0.02995553  0.00000000       0.005
   0.01997035  0.02995553  0.00000000       0.005
   0.02995553  0.02995553  0.00000000       0.005
   0.03994071  0.02995553  0.00000000       0.005
   0.04992589  0.02995553  0.00000000       0.005
   0.05991106  0.02995553  0.00000000       0.002
   0.00000000  0.03994071  0.00000000       0.002
   0.00998518  0.03994071  0.00000000       0.005
   0.01997035  0.03994071  0.00000000       0.005
   0.02995553  0.03994071  0.00000000       0.005
   0.03994071  0.03994071  0.00000000       0.005
   0.04992589  0.03994071  0.00000000       0.005
   0.05991106  0.03994071  0.00000000       0.002
   0.00000000  0.04992589  0.00000000       0.002
   0.00998518  0.04992589  0.00000000       0.005
   0.01997035  0.04992589  0.00000000       0.005
   0.02995553  0.04992589  0.00000000       0.005
   0.03994071  0.04992589  0.00000000       0.005
   0.04992589  0.04992589  0.00000000       0.005
   0.05991106  0.04992589  0.00000000       0.002
   0.00000000  0.05991106  0.00000000       0.001
   0.00998518  0.05991106  0.00000000       0.002
   0.01997035  0.05991106  0.00000000       0.002
   0.02995553  0.05991106  0.00000000       0.002
   0.03994071  0.05991106  0.00000000       0.002
   0.04992589  0.05991106  0.00000000       0.002
   0.05991106  0.05991106  0.00000000       0.001
   0.00000000  0.00998518  0.00998518       0.002
   0.00998518  0.00998518  0.00998518       0.005
   0.01997035  0.00998518  0.00998518       0.005
   0.02995553  0.00998518  0.00998518       0.005
   0.03994071  0.00998518  0.00998518       0.005
   0.04992589  0.00998518  0.00998518       0.005
   0.05991106  0.00998518  0.00998518       0.002
   0.00000000  0.01997035  0.00998518       0.005
   0.00998518  0.01997035  0.00998518       0.009
   0.01997035  0.01997035  0.00998518       0.009
   0.02995553  0.01997035  0.00998518       0.009
   0.03994071  0.01997035  0.00998518       0.009
   0.04992589  0.01997035  0.00998518       0.009
   0.05991106  0.01997035  0.00998518       0.005
   0.00000000  0.02995553  0.00998518       0.005
   0.00998518  0.02995553  0.00998518       0.009
   0.01997035  0.02995553  0.00998518       0.009
   0.02995553  0.02995553  0.00998518       0.009
   0.03994071  0.02995553  0.00998518       0.009
   0.04992589  0.02995553  0.00998518       0.009
   0.05991106  0.02995553  0.00998518       0.005
   0.00000000  0.03994071  0.00998518       0.005
   0.00998518  0.03994071  0.00998518       0.009
   0.01997035  0.03994071  0.00998518       0.009
   0.02995553  0.03994071  0.00998518       0.009
   0.03994071  0.03994071  0.00998518       0.009
   0.04992589  0.03994071  0.00998518       0.009
   0.05991106  0.03994071  0.00998518       0.005
   0.00000000  0.04992589  0.00998518       0.005
   0.00998518  0.04992589  0.00998518       0.009
   0.01997035  0.04992589  0.00998518       0.009
   0.02995553  0.04992589  0.00998518       0.009
   0.03994071  0.04992589  0.00998518       0.009
   0.04992589  0.04992589  0.00998518       0.009
   0.05991106  0.04992589  0.00998518       0.005
   0.00000000  0.05991106  0.00998518       0.002
   0.00998518  0.05991106  0.00998518       0.005
   0.01997035  0.05991106  0.00998518       0.005
   0.02995553  0.05991106  0.00998518       0.005
   0.03994071  0.05991106  0.00998518       0.005
   0.04992589  0.05991106  0.00998518       0.005
   0.05991106  0.05991106  0.00998518       0.002
   0.00000000  0.01997035  0.01997035       0.002
   0.00998518  0.01997035  0.01997035       0.005
   0.01997035  0.01997035  0.01997035       0.005
   0.02995553  0.01997035  0.01997035       0.005
   0.03994071  0.01997035  0.01997035       0.005
   0.04992589  0.01997035  0.01997035       0.005
   0.05991106  0.01997035  0.01997035       0.002
   0.00000000  0.02995553  0.01997035       0.005
   0.00998518  0.02995553  0.01997035       0.009
   0.01997035  0.02995553  0.01997035       0.009
   0.02995553  0.02995553  0.01997035       0.009
   0.03994071  0.02995553  0.01997035       0.009
   0.04992589  0.02995553  0.01997035       0.009
   0.05991106  0.02995553  0.01997035       0.005
   0.00000000  0.03994071  0.01997035       0.005
   0.00998518  0.03994071  0.01997035       0.009
   0.01997035  0.03994071  0.01997035       0.009
   0.02995553  0.03994071  0.01997035       0.009
   0.03994071  0.03994071  0.01997035       0.009
   0.04992589  0.03994071  0.01997035       0.009
   0.05991106  0.03994071  0.01997035       0.005
   0.00000000  0.04992589  0.01997035       0.005
   0.00998518  0.04992589  0.01997035       0.009
   0.01997035  0.04992589  0.01997035       0.009
   0.02995553  0.04992589  0.01997035       0.009
   0.03994071  0.04992589  0.01997035       0.009
   0.04992589  0.04992589  0.01997035       0.009
   0.05991106  0.04992589  0.01997035       0.005
   0.00000000  0.05991106  0.01997035       0.002
   0.00998518  0.05991106  0.01997035       0.005
   0.01997035  0.05991106  0.01997035       0.005
   0.02995553  0.05991106  0.01997035       0.005
   0.03994071  0.05991106  0.01997035       0.005
   0.04992589  0.05991106  0.01997035       0.005
   0.05991106  0.05991106  0.01997035       0.002
   0.00000000  0.02995553  0.02995553       0.002
   0.00998518  0.02995553  0.02995553       0.005
   0.01997035  0.02995553  0.02995553       0.005
   0.02995553  0.02995553  0.02995553       0.005
   0.03994071  0.02995553  0.02995553       0.005
   0.04992589  0.02995553  0.02995553       0.005
   0.05991106  0.02995553  0.02995553       0.002
   0.00000000  0.03994071  0.02995553       0.005
   0.00998518  0.03994071  0.02995553       0.009
   0.01997035  0.03994071  0.02995553       0.009
   0.02995553  0.03994071  0.02995553       0.009
   0.03994071  0.03994071  0.02995553       0.009
   0.04992589  0.03994071  0.02995553       0.009
   0.05991106  0.03994071  0.02995553       0.005
   0.00000000  0.04992589  0.02995553       0.005
   0.00998518  0.04992589  0.02995553       0.009
   0.01997035  0.04992589  0.02995553       0.009
   0.02995553  0.04992589  0.02995553       0.009
   0.03994071  0.04992589  0.02995553       0.009
   0.04992589  0.04992589  0.02995553       0.009
   0.05991106  0.04992589  0.02995553       0.005
   0.00000000  0.05991106  0.02995553       0.002
   0.00998518  0.05991106  0.02995553       0.005
   0.01997035  0.05991106  0.02995553       0.005
   0.02995553  0.05991106  0.02995553       0.005
   0.03994071  0.05991106  0.02995553       0.005
   0.04992589  0.05991106  0.02995553       0.005
   0.05991106  0.05991106  0.02995553       0.002
   0.00000000  0.03994071  0.03994071       0.002
   0.00998518  0.03994071  0.03994071       0.005
   0.01997035  0.03994071  0.03994071       0.005
   0.02995553  0.03994071  0.03994071       0.005
   0.03994071  0.03994071  0.03994071       0.005
   0.04992589  0.03994071  0.03994071       0.005
   0.05991106  0.03994071  0.03994071       0.002
   0.00000000  0.04992589  0.03994071       0.005
   0.00998518  0.04992589  0.03994071       0.009
   0.01997035  0.04992589  0.03994071       0.009
   0.02995553  0.04992589  0.03994071       0.009
   0.03994071  0.04992589  0.03994071       0.009
   0.04992589  0.04992589  0.03994071       0.009
   0.05991106  0.04992589  0.03994071       0.005
   0.00000000  0.05991106  0.03994071       0.002
   0.00998518  0.05991106  0.03994071       0.005
   0.01997035  0.05991106  0.03994071       0.005
   0.02995553  0.05991106  0.03994071       0.005
   0.03994071  0.05991106  0.03994071       0.005
   0.04992589  0.05991106  0.03994071       0.005
   0.05991106  0.05991106  0.03994071       0.002
   0.00000000  0.04992589  0.04992589       0.002
   0.00998518  0.04992589  0.04992589       0.005
   0.01997035  0.04992589  0.04992589       0.005
   0.02995553  0.04992589  0.04992589       0.005
   0.03994071  0.04992589  0.04992589       0.005
   0.04992589  0.04992589  0.04992589       0.005
   0.05991106  0.04992589  0.04992589       0.002
   0.00000000  0.05991106  0.04992589       0.002
   0.00998518  0.05991106  0.04992589       0.005
   0.01997035  0.05991106  0.04992589       0.005
   0.02995553  0.05991106  0.04992589       0.005
   0.03994071  0.05991106  0.04992589       0.005
   0.04992589  0.05991106  0.04992589       0.005
   0.05991106  0.05991106  0.04992589       0.002
   0.00000000  0.05991106  0.05991106       0.001
   0.00998518  0.05991106  0.05991106       0.001
   0.01997035  0.05991106  0.05991106       0.001
   0.02995553  0.05991106  0.05991106       0.001
   0.03994071  0.05991106  0.05991106       0.001
   0.04992589  0.05991106  0.05991106       0.001
   0.05991106  0.05991106  0.05991106       0.001
 
 k-points in reciprocal lattice and weights: Automatic mesh                          
   0.00000000  0.00000000  0.00000000       0.001
   0.08333333  0.00000000  0.00000000       0.001
   0.16666667  0.00000000  0.00000000       0.001
   0.25000000  0.00000000  0.00000000       0.001
   0.33333333  0.00000000  0.00000000       0.001
   0.41666667  0.00000000  0.00000000       0.001
   0.50000000  0.00000000  0.00000000       0.001
   0.00000000  0.08333333  0.00000000       0.002
   0.08333333  0.08333333  0.00000000       0.005
   0.16666667  0.08333333  0.00000000       0.005
   0.25000000  0.08333333  0.00000000       0.005
   0.33333333  0.08333333  0.00000000       0.005
   0.41666667  0.08333333  0.00000000       0.005
   0.50000000  0.08333333  0.00000000       0.002
   0.00000000  0.16666667  0.00000000       0.002
   0.08333333  0.16666667  0.00000000       0.005
   0.16666667  0.16666667  0.00000000       0.005
   0.25000000  0.16666667  0.00000000       0.005
   0.33333333  0.16666667  0.00000000       0.005
   0.41666667  0.16666667  0.00000000       0.005
   0.50000000  0.16666667  0.00000000       0.002
   0.00000000  0.25000000  0.00000000       0.002
   0.08333333  0.25000000  0.00000000       0.005
   0.16666667  0.25000000  0.00000000       0.005
   0.25000000  0.25000000  0.00000000       0.005
   0.33333333  0.25000000  0.00000000       0.005
   0.41666667  0.25000000  0.00000000       0.005
   0.50000000  0.25000000  0.00000000       0.002
   0.00000000  0.33333333  0.00000000       0.002
   0.08333333  0.33333333  0.00000000       0.005
   0.16666667  0.33333333  0.00000000       0.005
   0.25000000  0.33333333  0.00000000       0.005
   0.33333333  0.33333333  0.00000000       0.005
   0.41666667  0.33333333  0.00000000       0.005
   0.50000000  0.33333333  0.00000000       0.002
   0.00000000  0.41666667  0.00000000       0.002
   0.08333333  0.41666667  0.00000000       0.005
   0.16666667  0.41666667  0.00000000       0.005
   0.25000000  0.41666667  0.00000000       0.005
   0.33333333  0.41666667  0.00000000       0.005
   0.41666667  0.41666667  0.00000000       0.005
   0.50000000  0.41666667  0.00000000       0.002
   0.00000000  0.50000000  0.00000000       0.001
   0.08333333  0.50000000  0.00000000       0.002
   0.16666667  0.50000000  0.00000000       0.002
   0.25000000  0.50000000  0.00000000       0.002
   0.33333333  0.50000000  0.00000000       0.002
   0.41666667  0.50000000  0.00000000       0.002
   0.50000000  0.50000000  0.00000000       0.001
   0.00000000  0.08333333  0.08333333       0.002
   0.08333333  0.08333333  0.08333333       0.005
   0.16666667  0.08333333  0.08333333       0.005
   0.25000000  0.08333333  0.08333333       0.005
   0.33333333  0.08333333  0.08333333       0.005
   0.41666667  0.08333333  0.08333333       0.005
   0.50000000  0.08333333  0.08333333       0.002
   0.00000000  0.16666667  0.08333333       0.005
   0.08333333  0.16666667  0.08333333       0.009
   0.16666667  0.16666667  0.08333333       0.009
   0.25000000  0.16666667  0.08333333       0.009
   0.33333333  0.16666667  0.08333333       0.009
   0.41666667  0.16666667  0.08333333       0.009
   0.50000000  0.16666667  0.08333333       0.005
   0.00000000  0.25000000  0.08333333       0.005
   0.08333333  0.25000000  0.08333333       0.009
   0.16666667  0.25000000  0.08333333       0.009
   0.25000000  0.25000000  0.08333333       0.009
   0.33333333  0.25000000  0.08333333       0.009
   0.41666667  0.25000000  0.08333333       0.009
   0.50000000  0.25000000  0.08333333       0.005
   0.00000000  0.33333333  0.08333333       0.005
   0.08333333  0.33333333  0.08333333       0.009
   0.16666667  0.33333333  0.08333333       0.009
   0.25000000  0.33333333  0.08333333       0.009
   0.33333333  0.33333333  0.08333333       0.009
   0.41666667  0.33333333  0.08333333       0.009
   0.50000000  0.33333333  0.08333333       0.005
   0.00000000  0.41666667  0.08333333       0.005
   0.08333333  0.41666667  0.08333333       0.009
   0.16666667  0.41666667  0.08333333       0.009
   0.25000000  0.41666667  0.08333333       0.009
   0.33333333  0.41666667  0.08333333       0.009
   0.41666667  0.41666667  0.08333333       0.009
   0.50000000  0.41666667  0.08333333       0.005
   0.00000000  0.50000000  0.08333333       0.002
   0.08333333  0.50000000  0.08333333       0.005
   0.16666667  0.50000000  0.08333333       0.005
   0.25000000  0.50000000  0.08333333       0.005
   0.33333333  0.50000000  0.08333333       0.005
   0.41666667  0.50000000  0.08333333       0.005
   0.50000000  0.50000000  0.08333333       0.002
   0.00000000  0.16666667  0.16666667       0.002
   0.08333333  0.16666667  0.16666667       0.005
   0.16666667  0.16666667  0.16666667       0.005
   0.25000000  0.16666667  0.16666667       0.005
   0.33333333  0.16666667  0.16666667       0.005
   0.41666667  0.16666667  0.16666667       0.005
   0.50000000  0.16666667  0.16666667       0.002
   0.00000000  0.25000000  0.16666667       0.005
   0.08333333  0.25000000  0.16666667       0.009
   0.16666667  0.25000000  0.16666667       0.009
   0.25000000  0.25000000  0.16666667       0.009
   0.33333333  0.25000000  0.16666667       0.009
   0.41666667  0.25000000  0.16666667       0.009
   0.50000000  0.25000000  0.16666667       0.005
   0.00000000  0.33333333  0.16666667       0.005
   0.08333333  0.33333333  0.16666667       0.009
   0.16666667  0.33333333  0.16666667       0.009
   0.25000000  0.33333333  0.16666667       0.009
   0.33333333  0.33333333  0.16666667       0.009
   0.41666667  0.33333333  0.16666667       0.009
   0.50000000  0.33333333  0.16666667       0.005
   0.00000000  0.41666667  0.16666667       0.005
   0.08333333  0.41666667  0.16666667       0.009
   0.16666667  0.41666667  0.16666667       0.009
   0.25000000  0.41666667  0.16666667       0.009
   0.33333333  0.41666667  0.16666667       0.009
   0.41666667  0.41666667  0.16666667       0.009
   0.50000000  0.41666667  0.16666667       0.005
   0.00000000  0.50000000  0.16666667       0.002
   0.08333333  0.50000000  0.16666667       0.005
   0.16666667  0.50000000  0.16666667       0.005
   0.25000000  0.50000000  0.16666667       0.005
   0.33333333  0.50000000  0.16666667       0.005
   0.41666667  0.50000000  0.16666667       0.005
   0.50000000  0.50000000  0.16666667       0.002
   0.00000000  0.25000000  0.25000000       0.002
   0.08333333  0.25000000  0.25000000       0.005
   0.16666667  0.25000000  0.25000000       0.005
   0.25000000  0.25000000  0.25000000       0.005
   0.33333333  0.25000000  0.25000000       0.005
   0.41666667  0.25000000  0.25000000       0.005
   0.50000000  0.25000000  0.25000000       0.002
   0.00000000  0.33333333  0.25000000       0.005
   0.08333333  0.33333333  0.25000000       0.009
   0.16666667  0.33333333  0.25000000       0.009
   0.25000000  0.33333333  0.25000000       0.009
   0.33333333  0.33333333  0.25000000       0.009
   0.41666667  0.33333333  0.25000000       0.009
   0.50000000  0.33333333  0.25000000       0.005
   0.00000000  0.41666667  0.25000000       0.005
   0.08333333  0.41666667  0.25000000       0.009
   0.16666667  0.41666667  0.25000000       0.009
   0.25000000  0.41666667  0.25000000       0.009
   0.33333333  0.41666667  0.25000000       0.009
   0.41666667  0.41666667  0.25000000       0.009
   0.50000000  0.41666667  0.25000000       0.005
   0.00000000  0.50000000  0.25000000       0.002
   0.08333333  0.50000000  0.25000000       0.005
   0.16666667  0.50000000  0.25000000       0.005
   0.25000000  0.50000000  0.25000000       0.005
   0.33333333  0.50000000  0.25000000       0.005
   0.41666667  0.50000000  0.25000000       0.005
   0.50000000  0.50000000  0.25000000       0.002
   0.00000000  0.33333333  0.33333333       0.002
   0.08333333  0.33333333  0.33333333       0.005
   0.16666667  0.33333333  0.33333333       0.005
   0.25000000  0.33333333  0.33333333       0.005
   0.33333333  0.33333333  0.33333333       0.005
   0.41666667  0.33333333  0.33333333       0.005
   0.50000000  0.33333333  0.33333333       0.002
   0.00000000  0.41666667  0.33333333       0.005
   0.08333333  0.41666667  0.33333333       0.009
   0.16666667  0.41666667  0.33333333       0.009
   0.25000000  0.41666667  0.33333333       0.009
   0.33333333  0.41666667  0.33333333       0.009
   0.41666667  0.41666667  0.33333333       0.009
   0.50000000  0.41666667  0.33333333       0.005
   0.00000000  0.50000000  0.33333333       0.002
   0.08333333  0.50000000  0.33333333       0.005
   0.16666667  0.50000000  0.33333333       0.005
   0.25000000  0.50000000  0.33333333       0.005
   0.33333333  0.50000000  0.33333333       0.005
   0.41666667  0.50000000  0.33333333       0.005
   0.50000000  0.50000000  0.33333333       0.002
   0.00000000  0.41666667  0.41666667       0.002
   0.08333333  0.41666667  0.41666667       0.005
   0.16666667  0.41666667  0.41666667       0.005
   0.25000000  0.41666667  0.41666667       0.005
   0.33333333  0.41666667  0.41666667       0.005
   0.41666667  0.41666667  0.41666667       0.005
   0.50000000  0.41666667  0.41666667       0.002
   0.00000000  0.50000000  0.41666667       0.002
   0.08333333  0.50000000  0.41666667       0.005
   0.16666667  0.50000000  0.41666667       0.005
   0.25000000  0.50000000  0.41666667       0.005
   0.33333333  0.50000000  0.41666667       0.005
   0.41666667  0.50000000  0.41666667       0.005
   0.50000000  0.50000000  0.41666667       0.002
   0.00000000  0.50000000  0.50000000       0.001
   0.08333333  0.50000000  0.50000000       0.001
   0.16666667  0.50000000  0.50000000       0.001
   0.25000000  0.50000000  0.50000000       0.001
   0.33333333  0.50000000  0.50000000       0.001
   0.41666667  0.50000000  0.50000000       0.001
   0.50000000  0.50000000  0.50000000       0.001
 
 position of ions in fractional coordinates (direct lattice) 
   0.00119822  0.00000000  0.00000000
   0.50000000  0.00000000  0.00000000
   0.00000000  0.50000000  0.00000000
   0.50000000  0.50000000  0.00000000
   0.00000000  0.00000000  0.50000000
   0.50000000  0.00000000  0.50000000
   0.00000000  0.50000000  0.50000000
   0.50000000  0.50000000  0.50000000
   0.25000000  0.25000000  0.00000000
   0.75000000  0.25000000  0.00000000
   0.25000000  0.75000000  0.00000000
   0.75000000  0.75000000  0.00000000
   0.25000000  0.25000000  0.50000000
   0.75000000  0.25000000  0.50000000
   0.25000000  0.75000000  0.50000000
   0.75000000  0.75000000  0.50000000
   0.25000000  0.00000000  0.25000000
   0.75000000  0.00000000  0.25000000
   0.25000000  0.50000000  0.25000000
   0.75000000  0.50000000  0.25000000
   0.25000000  0.00000000  0.75000000
   0.75000000  0.00000000  0.75000000
   0.25000000  0.50000000  0.75000000
   0.75000000  0.50000000  0.75000000
   0.00000000  0.25000000  0.25000000
   0.50000000  0.25000000  0.25000000
   0.00000000  0.75000000  0.25000000
   0.50000000  0.75000000  0.25000000
   0.00000000  0.25000000  0.75000000
   0.50000000  0.25000000  0.75000000
   0.00000000  0.75000000  0.75000000
   0.50000000  0.75000000  0.75000000
 
 position of ions in cartesian coordinates  (Angst):
   0.01000000  0.00000000  0.00000000
   4.17285190  0.00000000  0.00000000
   0.00000000  4.17285190  0.00000000
   4.17285190  4.17285190  0.00000000
   0.00000000  0.00000000  4.17285190
   4.17285190  0.00000000  4.17285190
   0.00000000  4.17285190  4.17285190
   4.17285190  4.17285190  4.17285190
   2.08642595  2.08642595  0.00000000
   6.25927785  2.08642595  0.00000000
   2.08642595  6.25927785  0.00000000
   6.25927785  6.25927785  0.00000000
   2.08642595  2.08642595  4.17285190
   6.25927785  2.08642595  4.17285190
   2.08642595  6.25927785  4.17285190
   6.25927785  6.25927785  4.17285190
   2.08642595  0.00000000  2.08642595
   6.25927785  0.00000000  2.08642595
   2.08642595  4.17285190  2.08642595
   6.25927785  4.17285190  2.08642595
   2.08642595  0.00000000  6.25927785
   6.25927785  0.00000000  6.25927785
   2.08642595  4.17285190  6.25927785
   6.25927785  4.17285190  6.25927785
   0.00000000  2.08642595  2.08642595
   4.17285190  2.08642595  2.08642595
   0.00000000  6.25927785  2.08642595
   4.17285190  6.25927785  2.08642595
   0.00000000  2.08642595  6.25927785
   4.17285190  2.08642595  6.25927785
   0.00000000  6.25927785  6.25927785
   4.17285190  6.25927785  6.25927785
 


--------------------------------------------------------------------------------------------------------


 k-point  1 :  0.00000.00000.0000  plane waves:  27201
 k-point  2 :  0.08330.00000.0000  plane waves:  27145
 k-point  3 :  0.16670.00000.0000  plane waves:  27137
 k-point  4 :  0.25000.00000.0000  plane waves:  27085
 k-point  5 :  0.33330.00000.0000  plane waves:  27145
 k-point  6 :  0.41670.00000.0000  plane waves:  27110
 k-point  7 :  0.50000.00000.0000  plane waves:  27214
 k-point  8 :  0.00000.08330.0000  plane waves:  27145
 k-point  9 :  0.08330.08330.0000  plane waves:  27167
 k-point 10 :  0.16670.08330.0000  plane waves:  27140
 k-point 11 :  0.25000.08330.0000  plane waves:  27131
 k-point 12 :  0.33330.08330.0000  plane waves:  27128
 k-point 13 :  0.41670.08330.0000  plane waves:  27103
 k-point 14 :  0.50000.08330.0000  plane waves:  27122
 k-point 15 :  0.00000.16670.0000  plane waves:  27137
 k-point 16 :  0.08330.16670.0000  plane waves:  27140
 k-point 17 :  0.16670.16670.0000  plane waves:  27145
 k-point 18 :  0.25000.16670.0000  plane waves:  27123
 k-point 19 :  0.33330.16670.0000  plane waves:  27085
 k-point 20 :  0.41670.16670.0000  plane waves:  27119
 k-point 21 :  0.50000.16670.0000  plane waves:  27114
 k-point 22 :  0.00000.25000.0000  plane waves:  27085
 k-point 23 :  0.08330.25000.0000  plane waves:  27131
 k-point 24 :  0.16670.25000.0000  plane waves:  27123
 k-point 25 :  0.25000.25000.0000  plane waves:  27124
 k-point 26 :  0.33330.25000.0000  plane waves:  27099
 k-point 27 :  0.41670.25000.0000  plane waves:  27128
 k-point 28 :  0.50000.25000.0000  plane waves:  27108
 k-point 29 :  0.00000.33330.0000  plane waves:  27145
 k-point 30 :  0.08330.33330.0000  plane waves:  27128
 k-point 31 :  0.16670.33330.0000  plane waves:  27085
 k-point 32 :  0.25000.33330.0000  plane waves:  27099
 k-point 33 :  0.33330.33330.0000  plane waves:  27096
 k-point 34 :  0.41670.33330.0000  plane waves:  27102
 k-point 35 :  0.50000.33330.0000  plane waves:  27092
 k-point 36 :  0.00000.41670.0000  plane waves:  27110
 k-point 37 :  0.08330.41670.0000  plane waves:  27103
 k-point 38 :  0.16670.41670.0000  plane waves:  27119
 k-point 39 :  0.25000.41670.0000  plane waves:  27128
 k-point 40 :  0.33330.41670.0000  plane waves:  27102
 k-point 41 :  0.41670.41670.0000  plane waves:  27106
 k-point 42 :  0.50000.41670.0000  plane waves:  27110
 k-point 43 :  0.00000.50000.0000  plane waves:  27214
 k-point 44 :  0.08330.50000.0000  plane waves:  27122
 k-point 45 :  0.16670.50000.0000  plane waves:  27114
 k-point 46 :  0.25000.50000.0000  plane waves:  27108
 k-point 47 :  0.33330.50000.0000  plane waves:  27092
 k-point 48 :  0.41670.50000.0000  plane waves:  27110
 k-point 49 :  0.50000.50000.0000  plane waves:  27092
 k-point 50 :  0.00000.08330.0833  plane waves:  27167
 k-point 51 :  0.08330.08330.0833  plane waves:  27156
 k-point 52 :  0.16670.08330.0833  plane waves:  27153
 k-point 53 :  0.25000.08330.0833  plane waves:  27137
 k-point 54 :  0.33330.08330.0833  plane waves:  27116
 k-point 55 :  0.41670.08330.0833  plane waves:  27100
 k-point 56 :  0.50000.08330.0833  plane waves:  27128
 k-point 57 :  0.00000.16670.0833  plane waves:  27140
 k-point 58 :  0.08330.16670.0833  plane waves:  27153
 k-point 59 :  0.16670.16670.0833  plane waves:  27129
 k-point 60 :  0.25000.16670.0833  plane waves:  27127
 k-point 61 :  0.33330.16670.0833  plane waves:  27115
 k-point 62 :  0.41670.16670.0833  plane waves:  27103
 k-point 63 :  0.50000.16670.0833  plane waves:  27124
 k-point 64 :  0.00000.25000.0833  plane waves:  27131
 k-point 65 :  0.08330.25000.0833  plane waves:  27137
 k-point 66 :  0.16670.25000.0833  plane waves:  27127
 k-point 67 :  0.25000.25000.0833  plane waves:  27094
 k-point 68 :  0.33330.25000.0833  plane waves:  27105
 k-point 69 :  0.41670.25000.0833  plane waves:  27115
 k-point 70 :  0.50000.25000.0833  plane waves:  27110
 k-point 71 :  0.00000.33330.0833  plane waves:  27128
 k-point 72 :  0.08330.33330.0833  plane waves:  27116
 k-point 73 :  0.16670.33330.0833  plane waves:  27115
 k-point 74 :  0.25000.33330.0833  plane waves:  27105
 k-point 75 :  0.33330.33330.0833  plane waves:  27105
 k-point 76 :  0.41670.33330.0833  plane waves:  27111
 k-point 77 :  0.50000.33330.0833  plane waves:  27092
 k-point 78 :  0.00000.41670.0833  plane waves:  27103
 k-point 79 :  0.08330.41670.0833  plane waves:  27100
 k-point 80 :  0.16670.41670.0833  plane waves:  27103
 k-point 81 :  0.25000.41670.0833  plane waves:  27115
 k-point 82 :  0.33330.41670.0833  plane waves:  27111
 k-point 83 :  0.41670.41670.0833  plane waves:  27108
 k-point 84 :  0.50000.41670.0833  plane waves:  27104
 k-point 85 :  0.00000.50000.0833  plane waves:  27122
 k-point 86 :  0.08330.50000.0833  plane waves:  27128
 k-point 87 :  0.16670.50000.0833  plane waves:  27124
 k-point 88 :  0.25000.50000.0833  plane waves:  27110
 k-point 89 :  0.33330.50000.0833  plane waves:  27092
 k-point 90 :  0.41670.50000.0833  plane waves:  27104
 k-point 91 :  0.50000.50000.0833  plane waves:  27092
 k-point 92 :  0.00000.16670.1667  plane waves:  27145
 k-point 93 :  0.08330.16670.1667  plane waves:  27129
 k-point 94 :  0.16670.16670.1667  plane waves:  27090
 k-point 95 :  0.25000.16670.1667  plane waves:  27124
 k-point 96 :  0.33330.16670.1667  plane waves:  27120
 k-point 97 :  0.41670.16670.1667  plane waves:  27109
 k-point 98 :  0.50000.16670.1667  plane waves:  27108
 k-point 99 :  0.00000.25000.1667  plane waves:  27123
 k-point ** :  0.08330.25000.1667  plane waves:  27127
 k-point ** :  0.16670.25000.1667  plane waves:  27124
 k-point ** :  0.25000.25000.1667  plane waves:  27097
 k-point ** :  0.33330.25000.1667  plane waves:  27103
 k-point ** :  0.41670.25000.1667  plane waves:  27110
 k-point ** :  0.50000.25000.1667  plane waves:  27110
 k-point ** :  0.00000.33330.1667  plane waves:  27085
 k-point ** :  0.08330.33330.1667  plane waves:  27115
 k-point ** :  0.16670.33330.1667  plane waves:  27120
 k-point ** :  0.25000.33330.1667  plane waves:  27103
 k-point ** :  0.33330.33330.1667  plane waves:  27131
 k-point ** :  0.41670.33330.1667  plane waves:  27092
 k-point ** :  0.50000.33330.1667  plane waves:  27102
 k-point ** :  0.00000.41670.1667  plane waves:  27119
 k-point ** :  0.08330.41670.1667  plane waves:  27103
 k-point ** :  0.16670.41670.1667  plane waves:  27109
 k-point ** :  0.25000.41670.1667  plane waves:  27110
 k-point ** :  0.33330.41670.1667  plane waves:  27092
 k-point ** :  0.41670.41670.1667  plane waves:  27079
 k-point ** :  0.50000.41670.1667  plane waves:  27106
 k-point ** :  0.00000.50000.1667  plane waves:  27114
 k-point ** :  0.08330.50000.1667  plane waves:  27124
 k-point ** :  0.16670.50000.1667  plane waves:  27108
 k-point ** :  0.25000.50000.1667  plane waves:  27110
 k-point ** :  0.33330.50000.1667  plane waves:  27102
 k-point ** :  0.41670.50000.1667  plane waves:  27106
 k-point ** :  0.50000.50000.1667  plane waves:  27120
 k-point ** :  0.00000.25000.2500  plane waves:  27124
 k-point ** :  0.08330.25000.2500  plane waves:  27094
 k-point ** :  0.16670.25000.2500  plane waves:  27097
 k-point ** :  0.25000.25000.2500  plane waves:  27124
 k-point ** :  0.33330.25000.2500  plane waves:  27110
 k-point ** :  0.41670.25000.2500  plane waves:  27094
 k-point ** :  0.50000.25000.2500  plane waves:  27122
 k-point ** :  0.00000.33330.2500  plane waves:  27099
 k-point ** :  0.08330.33330.2500  plane waves:  27105
 k-point ** :  0.16670.33330.2500  plane waves:  27103
 k-point ** :  0.25000.33330.2500  plane waves:  27110
 k-point ** :  0.33330.33330.2500  plane waves:  27124
 k-point ** :  0.41670.33330.2500  plane waves:  27118
 k-point ** :  0.50000.33330.2500  plane waves:  27106
 k-point ** :  0.00000.41670.2500  plane waves:  27128
 k-point ** :  0.08330.41670.2500  plane waves:  27115
 k-point ** :  0.16670.41670.2500  plane waves:  27110
 k-point ** :  0.25000.41670.2500  plane waves:  27094
 k-point ** :  0.33330.41670.2500  plane waves:  27118
 k-point ** :  0.41670.41670.2500  plane waves:  27094
 k-point ** :  0.50000.41670.2500  plane waves:  27072
 k-point ** :  0.00000.50000.2500  plane waves:  27108
 k-point ** :  0.08330.50000.2500  plane waves:  27110
 k-point ** :  0.16670.50000.2500  plane waves:  27110
 k-point ** :  0.25000.50000.2500  plane waves:  27122
 k-point ** :  0.33330.50000.2500  plane waves:  27106
 k-point ** :  0.41670.50000.2500  plane waves:  27072
 k-point ** :  0.50000.50000.2500  plane waves:  27048
 k-point ** :  0.00000.33330.3333  plane waves:  27096
 k-point ** :  0.08330.33330.3333  plane waves:  27105
 k-point ** :  0.16670.33330.3333  plane waves:  27131
 k-point ** :  0.25000.33330.3333  plane waves:  27124
 k-point ** :  0.33330.33330.3333  plane waves:  27055
 k-point ** :  0.41670.33330.3333  plane waves:  27096
 k-point ** :  0.50000.33330.3333  plane waves:  27096
 k-point ** :  0.00000.41670.3333  plane waves:  27102
 k-point ** :  0.08330.41670.3333  plane waves:  27111
 k-point ** :  0.16670.41670.3333  plane waves:  27092
 k-point ** :  0.25000.41670.3333  plane waves:  27118
 k-point ** :  0.33330.41670.3333  plane waves:  27096
 k-point ** :  0.41670.41670.3333  plane waves:  27108
 k-point ** :  0.50000.41670.3333  plane waves:  27082
 k-point ** :  0.00000.50000.3333  plane waves:  27092
 k-point ** :  0.08330.50000.3333  plane waves:  27092
 k-point ** :  0.16670.50000.3333  plane waves:  27102
 k-point ** :  0.25000.50000.3333  plane waves:  27106
 k-point ** :  0.33330.50000.3333  plane waves:  27096
 k-point ** :  0.41670.50000.3333  plane waves:  27082
 k-point ** :  0.50000.50000.3333  plane waves:  27100
 k-point ** :  0.00000.41670.4167  plane waves:  27106
 k-point ** :  0.08330.41670.4167  plane waves:  27108
 k-point ** :  0.16670.41670.4167  plane waves:  27079
 k-point ** :  0.25000.41670.4167  plane waves:  27094
 k-point ** :  0.33330.41670.4167  plane waves:  27108
 k-point ** :  0.41670.41670.4167  plane waves:  27115
 k-point ** :  0.50000.41670.4167  plane waves:  27114
 k-point ** :  0.00000.50000.4167  plane waves:  27110
 k-point ** :  0.08330.50000.4167  plane waves:  27104
 k-point ** :  0.16670.50000.4167  plane waves:  27106
 k-point ** :  0.25000.50000.4167  plane waves:  27072
 k-point ** :  0.33330.50000.4167  plane waves:  27082
 k-point ** :  0.41670.50000.4167  plane waves:  27114
 k-point ** :  0.50000.50000.4167  plane waves:  27120
 k-point ** :  0.00000.50000.5000  plane waves:  27092
 k-point ** :  0.08330.50000.5000  plane waves:  27092
 k-point ** :  0.16670.50000.5000  plane waves:  27120
 k-point ** :  0.25000.50000.5000  plane waves:  27048
 k-point ** :  0.33330.50000.5000  plane waves:  27100
 k-point ** :  0.41670.50000.5000  plane waves:  27120
 k-point ** :  0.50000.50000.5000  plane waves:  27112

 maximum and minimum number of plane-waves per node :  27214 27048

 maximum number of plane-waves:  27214
 maximal index in each direction: 
   IXMAX= 18   IYMAX= 18   IZMAX= 18
   IXMIN=-19   IYMIN=-19   IZMIN=-19

 NGX is ok and might be reduce to  76
 NGY is ok and might be reduce to  76
 NGZ is ok and might be reduce to  76

 parallel 3dFFT wavefunction:
    minimum data exchange during FFTs selected (reduces bandwidth)
 parallel 3dFFT charge:
    minimum data exchange during FFTs selected (reduces bandwidth)

 For storing wavefunctions ******* MBYTES are necessary
 For predicting wavefunctions  198.02 MBYTES are necessary
Broyden mixing: mesh for mixing (old mesh)
   NGX = 37   NGY = 37   NGZ = 37
  (NGX  =160   NGY  =160   NGZ  =160)
 gives a total of  50653 points
 initial charge density was supplied:
 charge density of overlapping atoms calculated
 number of electron  352.0000000 magnetization 
 keeping initial charge density in first step


--------------------------------------------------------------------------------------------------------


 Maximum index for augmentation-charges        52259 (set IRDMAX)


--------------------------------------------------------------------------------------------------------


 First call to EWALD:  gamma=   0.212
 Maximum number of real-space cells 3x 3x 3
 Maximum number of reciprocal cells 3x 3x 3

    FEWALD:  VPU time    0.00: CPU time    0.00


----------------------------------------- Iteration    1(   1)  ---------------------------------------


    POTLOK:  VPU time    0.38: CPU time    0.38
    SETDIJ:  VPU time    0.75: CPU time    0.75
    EDDAV :  VPU time 1805.31: CPU time 1810.41
    DOS   :  VPU time    0.00: CPU time   -0.00
    ------------------------------------------
      LOOP:  VPU time 1806.54: CPU time 1811.64

 eigenvalue-minimisations  : 84672
 total energy-change (2. order) : 0.4733267E+04  (-0.2082569E+05)
 number of electron  352.0000000 magnetization 
 augmentation part   352.0000000 magnetization 

 Free energy of the ion-electron system (eV)
  ---------------------------------------------------
  alpha Z        PSCENC =      3299.18892974
  Ewald energy   TEWEN  =    -30630.52956301
  -1/2 Hartree   DENC   =     -4230.53335063
  -V(xc)+E(xc)   XCENC  =       484.66791212
  PAW double counting   =     23920.39735419   -23172.13309131
  entropy T*S    EENTRO =        -0.00042739
  eigenvalues    EBANDS =      5428.41914641
  atomic energy  EATOM  =     29633.78979189
  ---------------------------------------------------
  free energy    TOTEN  =      4733.26670201 eV

  energy without entropy =     4733.26712940  energy(sigma->0) =     4733.26691571


--------------------------------------------------------------------------------------------------------




----------------------------------------- Iteration    1(   2)  ---------------------------------------


    EDDAV :  VPU time 1810.54: CPU time 1813.51
    DOS   :  VPU time    0.00: CPU time   -0.00
    ------------------------------------------
      LOOP:  VPU time 1810.63: CPU time 1813.61

 eigenvalue-minimisations  : 84672
 total energy-change (2. order) :-0.4569553E+04  (-0.4369938E+04)
 number of electron  352.0000000 magnetization 
 augmentation part   352.0000000 magnetization 

 Free energy of the ion-electron system (eV)
  ---------------------------------------------------
  alpha Z        PSCENC =      3299.18892974
  Ewald energy   TEWEN  =    -30630.52956301
  -1/2 Hartree   DENC   =     -4230.53335063
  -V(xc)+E(xc)   XCENC  =       484.66791212
  PAW double counting   =     23920.39735419   -23172.13309131
  entropy T*S    EENTRO =        -0.00049531
  eigenvalues    EBANDS =       858.86657806
  atomic energy  EATOM  =     29633.78979189
  ---------------------------------------------------
  free energy    TOTEN  =       163.71406575 eV

  energy without entropy =      163.71456106  energy(sigma->0) =      163.71431340


--------------------------------------------------------------------------------------------------------




----------------------------------------- Iteration    1(   3)  ---------------------------------------


    EDDAV :  VPU time 1944.22: CPU time 1947.41
    DOS   :  VPU time    0.00: CPU time   -0.00
    ------------------------------------------
      LOOP:  VPU time 1944.32: CPU time 1947.52

 eigenvalue-minimisations  : 92912
 total energy-change (2. order) :-0.2672262E+03  (-0.2454828E+03)
 number of electron  352.0000000 magnetization 
 augmentation part   352.0000000 magnetization 

 Free energy of the ion-electron system (eV)
  ---------------------------------------------------
  alpha Z        PSCENC =      3299.18892974
  Ewald energy   TEWEN  =    -30630.52956301
  -1/2 Hartree   DENC   =     -4230.53335063
  -V(xc)+E(xc)   XCENC  =       484.66791212
  PAW double counting   =     23920.39735419   -23172.13309131
  entropy T*S    EENTRO =        -0.00074022
  eigenvalues    EBANDS =       591.64057307
  atomic energy  EATOM  =     29633.78979189
  ---------------------------------------------------
  free energy    TOTEN  =      -103.51218415 eV

  energy without entropy =     -103.51144394  energy(sigma->0) =     -103.51181405


--------------------------------------------------------------------------------------------------------




----------------------------------------- Iteration    1(   4)  ---------------------------------------


    EDDAV :  VPU time 1907.53: CPU time 1911.65
    DOS   :  VPU time    0.00: CPU time   -0.00
    ------------------------------------------
      LOOP:  VPU time 1907.63: CPU time 1911.75

 eigenvalue-minimisations  : 90736
 total energy-change (2. order) :-0.8926319E+01  (-0.8790437E+01)
 number of electron  352.0000000 magnetization 
 augmentation part   352.0000000 magnetization 

 Free energy of the ion-electron system (eV)
  ---------------------------------------------------
  alpha Z        PSCENC =      3299.18892974
  Ewald energy   TEWEN  =    -30630.52956301
  -1/2 Hartree   DENC   =     -4230.53335063
  -V(xc)+E(xc)   XCENC  =       484.66791212
  PAW double counting   =     23920.39735419   -23172.13309131
  entropy T*S    EENTRO =        -0.00078149
  eigenvalues    EBANDS =       582.71429516
  atomic energy  EATOM  =     29633.78979189
  ---------------------------------------------------
  free energy    TOTEN  =      -112.43850333 eV

  energy without entropy =     -112.43772184  energy(sigma->0) =     -112.43811259


--------------------------------------------------------------------------------------------------------




----------------------------------------- Iteration    1(   5)  ---------------------------------------


    EDDAV :  VPU time 1915.54: CPU time 1920.22
    DOS   :  VPU time   -0.00: CPU time   -0.00
    CHARGE:  VPU time   62.09: CPU time   62.20
    MIXING:  VPU time    0.01: CPU time    0.01
    ------------------------------------------
      LOOP:  VPU time 1977.74: CPU time 1982.53

 eigenvalue-minimisations  : 91224
 total energy-change (2. order) :-0.1469917E+00  (-0.1465890E+00)
 number of electron  352.0000007 magnetization 
 augmentation part   124.1724880 magnetization 

 Broyden mixing:
  rms(total) = 0.16155E+01    rms(broyden)= 0.16155E+01
  rms(prec ) = 0.24748E+01
  weight for this iteration     100.00

 Free energy of the ion-electron system (eV)
  ---------------------------------------------------
  alpha Z        PSCENC =      3299.18892974
  Ewald energy   TEWEN  =    -30630.52956301
  -1/2 Hartree   DENC   =     -4230.53335063
  -V(xc)+E(xc)   XCENC  =       484.66791212
  PAW double counting   =     23920.39735419   -23172.13309131
  entropy T*S    EENTRO =        -0.00077938
  eigenvalues    EBANDS =       582.56730139
  atomic energy  EATOM  =     29633.78979189
  ---------------------------------------------------
  free energy    TOTEN  =      -112.58549500 eV

  energy without entropy =     -112.58471562  energy(sigma->0) =     -112.58510531


--------------------------------------------------------------------------------------------------------




----------------------------------------- Iteration    1(   6)  ---------------------------------------


    POTLOK:  VPU time    0.41: CPU time    0.41
    SETDIJ:  VPU time    0.75: CPU time    0.75
    EDDAV :  VPU time 1885.97: CPU time 1889.05
    DOS   :  VPU time    0.00: CPU time   -0.00
    CHARGE:  VPU time   62.14: CPU time   62.24
    MIXING:  VPU time    0.01: CPU time    0.01
    ------------------------------------------
      LOOP:  VPU time 1949.39: CPU time 1952.58

 eigenvalue-minimisations  : 89512
 total energy-change (2. order) : 0.7355666E+01  (-0.1950109E+01)
 number of electron  352.0000007 magnetization 
 augmentation part   128.3772368 magnetization 

 Broyden mixing:
  rms(total) = 0.42527E+00    rms(broyden)= 0.42527E+00
  rms(prec ) = 0.63160E+00
  weight for this iteration     100.00

 eigenvalues of (default mixing * dielectric matrix)
  average eigenvalue GAMMA=   1.2248
  1.2248

 Free energy of the ion-electron system (eV)
  ---------------------------------------------------
  alpha Z        PSCENC =      3299.18892974
  Ewald energy   TEWEN  =    -30630.52956301
  -1/2 Hartree   DENC   =     -3985.67851475
  -V(xc)+E(xc)   XCENC  =       473.86697790
  PAW double counting   =     23681.10093979   -22969.23628658
  entropy T*S    EENTRO =        -0.00065675
  eigenvalues    EBANDS =       392.26855261
  atomic energy  EATOM  =     29633.78979189
  ---------------------------------------------------
  free energy    TOTEN  =      -105.22982915 eV

  energy without entropy =     -105.22917240  energy(sigma->0) =     -105.22950078


--------------------------------------------------------------------------------------------------------




----------------------------------------- Iteration    1(   7)  ---------------------------------------


    POTLOK:  VPU time    0.39: CPU time    0.39
    SETDIJ:  VPU time    0.75: CPU time    0.75
    EDDAV :  VPU time 1962.06: CPU time 1965.28
    DOS   :  VPU time    0.00: CPU time   -0.00
    CHARGE:  VPU time   62.69: CPU time   62.79
    MIXING:  VPU time    0.01: CPU time    0.01
    ------------------------------------------
      LOOP:  VPU time 2026.00: CPU time 2029.32

 eigenvalue-minimisations  : 94120
 total energy-change (2. order) : 0.4596610E+00  (-0.1311597E+00)
 number of electron  352.0000007 magnetization 
 augmentation part   129.4150581 magnetization 

 Broyden mixing:
  rms(total) = 0.17229E+00    rms(broyden)= 0.17229E+00
  rms(prec ) = 0.20254E+00
  weight for this iteration     100.00

 eigenvalues of (default mixing * dielectric matrix)
  average eigenvalue GAMMA=   1.8244
  1.2162  2.4325

 Free energy of the ion-electron system (eV)
  ---------------------------------------------------
  alpha Z        PSCENC =      3299.18892974
  Ewald energy   TEWEN  =    -30630.52956301
  -1/2 Hartree   DENC   =     -3912.03424480
  -V(xc)+E(xc)   XCENC  =       470.52134370
  PAW double counting   =     23736.69216700   -23047.33247462
  entropy T*S    EENTRO =        -0.00050717
  eigenvalues    EBANDS =       344.93438916
  atomic energy  EATOM  =     29633.78979189
[...]
     72       0.7982      2.00000
     73       0.7986      2.00000
     74       0.7986      2.00000
     75       0.7987      2.00000
     76       0.7988      2.00000
     77       0.7994      2.00000
     78       0.7996      2.00000
     79       0.8000      2.00000
     80       0.8000      2.00000
     81       0.8914      2.00000
     82       0.8914      2.00000
     83       0.8925      2.00000
     84       0.8929      2.00000
     85       0.8946      2.00000
     86       0.8954      2.00000
     87       0.8955      2.00000
     88       0.8955      2.00000
     89       0.8956      2.00000
     90       0.8956      2.00000
     91       0.8956      2.00000
     92       0.8956      2.00000
     93       0.8957      2.00000
     94       0.8958      2.00000
     95       0.8958      2.00000
     96       0.8958      2.00000
     97       0.8959      2.00000
     98       0.8959      2.00000
     99       0.8960      2.00000
    100       0.8968      2.00000
    101       0.8985      2.00000
    102       0.8989      2.00000
    103       0.9001      2.00000
    104       0.9001      2.00000
    105       1.6094      2.00000
    106       1.6110      2.00000
    107       1.6110      2.00000
    108       1.6134      2.00000
    109       1.6136      2.00000
    110       1.6137      2.00000
    111       1.6137      2.00000
    112       1.6140      2.00000
    113       1.6142      2.00000
    114       1.6142      2.00000
    115       1.6142      2.00000
    116       1.6142      2.00000
    117       1.6143      2.00000
    118       1.6143      2.00000
    119       1.6143      2.00000
    120       1.6143      2.00000
    121       1.6145      2.00000
    122       1.6148      2.00000
    123       1.6148      2.00000
    124       1.6149      2.00000
    125       1.6151      2.00000
    126       1.6176      2.00000
    127       1.6176      2.00000
    128       1.6191      2.00000
    129       2.0535      2.00000
    130       2.0551      2.00000
    131       2.0552      2.00000
    132       2.0552      2.00000
    133       2.0564      2.00000
    134       2.0564      2.00000
    135       2.0566      2.00000
    136       2.0567      2.00000
    137       2.0569      2.00000
    138       2.0570      2.00000
    139       2.0572      2.00000
    140       2.0572      2.00000
    141       2.0584      2.00000
    142       2.0584      2.00000
    143       2.0586      2.00000
    144       2.0602      2.00000
    145       3.0513      2.00000
    146       3.0513      2.00000
    147       3.0516      2.00000
    148       3.0518      2.00000
    149       3.0518      2.00000
    150       3.0518      2.00000
    151       3.0518      2.00000
    152       3.0519      2.00000
    153       3.0520      2.00000
    154       3.0521      2.00000
    155       3.0521      2.00000
    156       3.0521      2.00000
    157       3.0523      2.00000
    158       3.0524      2.00000
    159       3.0524      2.00000
    160       3.0525      2.00000
    161       3.0526      2.00000
    162       3.0526      2.00000
    163       3.0526      2.00000
    164       3.0526      2.00000
    165       3.0527      2.00000
    166       3.0530      2.00000
    167       3.0532      2.00000
    168       3.0532      2.00000
    169       5.8877      0.00000
    170       5.8905      0.00000
    171       5.8905      0.00000
    172       5.8924      0.00000
    173       5.8931      0.00000
    174       5.8933      0.00000
    175       5.8933      0.00000
    176       5.8934      0.00000
    177       5.8934      0.00000
    178       5.8934      0.00000
    179       5.8935      0.00000
    180       5.8935      0.00000
    181       5.8938      0.00000
    182       5.8938      0.00000
    183       5.8938      0.00000
    184       5.8939      0.00000
    185       5.8939      0.00000
    186       5.8939      0.00000
    187       5.8939      0.00000
    188       5.8942      0.00000
    189       5.8948      0.00000
    190       5.8967      0.00000
    191       5.8967      0.00000
    192       5.8996      0.00000
    193      10.2006      0.00000
    194      10.2006      0.00000
    195      10.2040      0.00000
    196      10.2041      0.00000
    197      10.2048      0.00000
    198      10.2053      0.00000
    199      10.2053      0.00000
    200      10.2060      0.00000
    201      10.2060      0.00000
    202      10.2060      0.00000
    203      10.2060      0.00000
    204      10.2060      0.00000
    205      10.2061      0.00000
    206      10.2061      0.00000
    207      10.2061      0.00000
    208      10.2061      0.00000
    209      10.2061      0.00000
    210      10.2068      0.00000
    211      10.2068      0.00000
    212      10.2073      0.00000
    213      10.2080      0.00000
    214      10.2081      0.00000
    215      10.2115      0.00000
    216      10.2115      0.00000


--------------------------------------------------------------------------------------------------------


 soft charge-density along one line, spin component           1
         0         1         2         3         4         5         6         7         8         9
 total charge-density along one line
 
 pseudopotential strength for first ion, spin component:           1
-10.052  -0.000  -0.000  -0.000   0.000  -0.068   0.000   0.000
 -0.000 -10.052   0.000   0.000   0.000   0.000  -0.068  -0.000
 -0.000   0.000 -10.038   0.000  -0.000   0.000  -0.000  -0.069
 -0.000   0.000   0.000 -10.052  -0.000   0.000  -0.000  -0.000
  0.000   0.000  -0.000  -0.000 -10.038  -0.000  -0.000   0.000
 -0.068   0.000   0.000   0.000  -0.000   0.279  -0.000  -0.000
  0.000  -0.068  -0.000  -0.000  -0.000  -0.000   0.279   0.000
  0.000  -0.000  -0.069  -0.000   0.000  -0.000   0.000   0.280
  0.000  -0.000  -0.000  -0.068   0.000  -0.000   0.000   0.000
 -0.000  -0.000   0.000   0.000  -0.069   0.000   0.000  -0.000
 -0.000   0.000   0.000   0.000  -0.000  -0.000   0.000  -0.000
  0.000  -0.000  -0.000  -0.000   0.000  -0.000   0.000   0.000
 -0.000  -0.000   0.000  -0.000  -0.000   0.000   0.000  -0.000
 -0.000  -0.000   0.000  -0.000  -0.000   0.000   0.000   0.000
 -0.000  -0.000   0.000  -0.000  -0.000   0.000   0.000  -0.000
  0.000   0.000  -0.000   0.000   0.000  -0.000  -0.000   0.000
  0.000  -0.000  -0.000   0.000   0.000  -0.000  -0.000   0.000
  0.000   0.000  -0.000   0.000   0.000  -0.000  -0.000   0.000
 total augmentation occupancy for first ion, spin component:           1
  1.901  -0.000  -0.003  -0.001  -0.001  -0.044   0.000   0.001   0.001   0.001   0.006   0.000   0.000   0.000  -0.000  -0.000
 -0.000   1.908  -0.001  -0.002  -0.003   0.000  -0.051   0.002   0.001   0.001   0.005   0.000   0.000   0.000  -0.000  -0.000
 -0.003  -0.001   1.961   0.000  -0.004   0.001   0.002  -0.097   0.001   0.003   0.014   0.004   0.000  -0.000  -0.000  -0.000
 -0.001  -0.002   0.000   1.916   0.002   0.001   0.001   0.001  -0.058   0.000   0.005   0.000   0.000   0.000  -0.000  -0.000
 -0.001  -0.003  -0.004   0.002   1.947   0.001   0.001   0.003   0.000  -0.086   0.008   0.002   0.000   0.000   0.000  -0.000
 -0.044   0.000   0.001   0.001   0.001   0.176   0.000   0.002  -0.000  -0.001  -0.002   0.001   0.002  -0.000   0.000  -0.000
  0.000  -0.051   0.002   0.001   0.001   0.000   0.182  -0.003  -0.001   0.001  -0.001   0.002  -0.000  -0.000   0.000   0.000
  0.001   0.002  -0.097   0.001   0.003   0.002  -0.003   0.146  -0.002  -0.002  -0.010  -0.002   0.000   0.000  -0.000   0.000
  0.001   0.001   0.001  -0.058   0.000  -0.000  -0.001  -0.002   0.188  -0.003  -0.001   0.002  -0.000   0.002   0.000   0.000
  0.001   0.001   0.003   0.000  -0.086  -0.001   0.001  -0.002  -0.003   0.141  -0.006  -0.001  -0.000  -0.000   0.001   0.000
  0.006   0.005   0.014   0.005   0.008  -0.002  -0.001  -0.010  -0.001  -0.006   1.048  -0.349   0.000  -0.000   0.003   0.000
  0.000   0.000   0.004   0.000   0.002   0.001   0.002  -0.002   0.002  -0.001  -0.349   0.218   0.000   0.000  -0.001   0.000
  0.000   0.000   0.000   0.000   0.000   0.002  -0.000   0.000  -0.000  -0.000   0.000   0.000   0.142   0.001   0.002  -0.010
  0.000   0.000  -0.000   0.000   0.000  -0.000  -0.000   0.000   0.002  -0.000  -0.000   0.000   0.001   0.143  -0.000  -0.000
 -0.000  -0.000  -0.000  -0.000   0.000   0.000   0.000  -0.000   0.000   0.001   0.003  -0.001   0.002  -0.000   0.143  -0.000
 -0.000  -0.000  -0.000  -0.000  -0.000  -0.000   0.000   0.000   0.000   0.000   0.000   0.000  -0.010  -0.000  -0.000   0.001
 -0.000  -0.000   0.000  -0.000   0.000   0.000   0.000  -0.000  -0.000  -0.000   0.000   0.000  -0.000  -0.010  -0.000   0.000
  0.000   0.000   0.000   0.000  -0.000  -0.000  -0.000   0.000  -0.000  -0.000  -0.000   0.000  -0.000  -0.000  -0.010   0.000


------------------------ aborting loop because EDIFF is reached ----------------------------------------




--------------------------------------------------------------------------------------------------------


    CHARGE:  VPU time   62.58: CPU time   62.68
    FORLOC:  VPU time    0.06: CPU time    0.06
    FORNL :  VPU time  363.65: CPU time  364.15
    STRESS:  VPU time 2168.62: CPU time 2172.14
    FORCOR:  VPU time    0.42: CPU time    0.42
    FORHAR:  VPU time    0.13: CPU time    0.13
    MIXING:  VPU time    0.01: CPU time    0.01


--------------------------------------------------------------------------------------------------------



  FREE ENERGIE OF THE ION-ELECTRON SYSTEM (eV)
  ---------------------------------------------------
  free  energy   TOTEN  =      -104.683321 eV

  energy  without entropy=     -104.682832  energy(sigma->0) =     -104.683077
 

  FORCE on cell =-STRESS in cart. coord.  units (eV/reduce length):
  Direction    X        Y        Z        XY       YZ       ZX
  --------------------------------------------------------------------------------------
  Alpha Z   3299.19   3299.19   3299.19
  Ewald   -10210.24 -10210.21 -10210.21      0.00      0.00      0.00
  Hartree   1295.50   1295.52   1295.52     -0.00     -0.00     -0.00
  E(xc)    -1585.99  -1585.99  -1585.99      0.00      0.00      0.00
  Local     2539.28   2539.22   2539.22     -0.00      0.00      0.00
  n-local  -1606.18  -1612.58  -1599.79      3.94      3.34      2.75
  augment   1375.02   1375.02   1375.02     -0.00     -0.00     -0.00
  Kinetic   4893.60   4887.29   4899.91      0.63     -0.34     -1.31
  -------------------------------------------------------------------------------------
  Total        0.18      0.18      0.18      0.00      0.00      0.00
  in kB        0.51      0.51      0.51      0.00      0.00      0.00
  external pressure =        0.51 kB  Pullay stress =        0.00 kB


 VOLUME and BASIS-vectors are now :
 -----------------------------------------------------------------------------
  energy-cutoff  :      750.00
  volume of cell :      581.28
      direct lattice vectors                 reciprocal lattice vectors
     8.345703805  0.000000000  0.000000000     0.119822129  0.000000000  0.000000000
     0.000000000  8.345703805  0.000000000     0.000000000  0.119822129  0.000000000
     0.000000000  0.000000000  8.345703805     0.000000000  0.000000000  0.119822129

  length of vectors
     8.345703805  8.345703805  8.345703805     0.119822129  0.119822129  0.119822129


 FORCES acting on ions
    electron-ion (+dipol)            ewald-force                    non-local-force                 convergence-correction
 -----------------------------------------------------------------------------------------------
   0.388E+01 0.540E-13 0.135E-07   -.389E+01 -.178E-13 0.249E-13   -.362E-01 0.459E-19 0.328E-19   -.336E-04 0.782E-13 -.144E-12
   -.102E+01 0.850E-13 -.136E-07   0.103E+01 0.114E-12 0.284E-13   -.705E-02 0.232E-19 -.278E-20   0.108E-04 0.818E-13 -.219E-12
   0.323E+00 -.538E-13 0.350E-11   -.325E+00 0.135E-12 0.178E-13   0.139E-02 0.381E-19 0.605E-20   -.193E-04 -.178E-12 -.796E-13
   -.261E+00 0.130E-11 0.323E-11   0.255E+00 0.171E-12 0.142E-13   0.364E-02 -.163E-19 -.235E-20   0.184E-04 -.196E-12 -.105E-12
   0.323E+00 0.534E-13 -.225E-12   -.325E+00 0.103E-12 -.107E-13   0.139E-02 0.461E-20 0.897E-20   -.190E-04 0.815E-13 0.401E-13
   -.261E+00 0.343E-13 0.900E-12   0.255E+00 0.128E-12 -.142E-13   0.364E-02 -.438E-20 0.529E-20   0.183E-04 0.867E-13 0.105E-12
   0.136E+00 -.530E-13 0.495E-11   -.134E+00 0.139E-12 0.604E-13   -.118E-02 0.104E-20 -.363E-20   -.183E-04 -.184E-12 -.294E-13
   -.126E+00 -.456E-11 0.621E-11   0.126E+00 0.142E-12 0.114E-12   -.252E-03 -.322E-20 -.331E-20   0.227E-04 -.202E-12 -.153E-13
   -.490E+00 -.940E+00 0.387E-12   0.494E+00 0.949E+00 0.249E-13   0.420E-02 0.141E-02 -.530E-20   0.701E-05 0.303E-06 -.171E-12
   -.493E+00 0.933E+00 -.577E-11   0.497E+00 -.941E+00 0.533E-13   0.409E-02 -.134E-02 0.608E-20   0.381E-05 -.357E-05 -.125E-12
   -.490E+00 0.940E+00 0.334E-12   0.494E+00 -.949E+00 0.284E-13   0.420E-02 -.141E-02 -.578E-20   0.701E-05 -.303E-06 -.132E-12
   -.493E+00 -.933E+00 0.613E-11   0.497E+00 0.941E+00 0.284E-13   0.409E-02 0.134E-02 0.731E-20   0.381E-05 0.357E-05 -.105E-12
   -.140E-01 -.777E-01 0.580E-11   0.150E-01 0.780E-01 -.213E-13   -.768E-03 -.946E-04 0.329E-21   0.554E-06 -.263E-05 0.566E-13
   -.155E-01 0.777E-01 0.698E-11   0.165E-01 -.779E-01 0.711E-14   -.773E-03 0.767E-04 -.898E-21   -.347E-05 -.802E-06 0.237E-13
   -.140E-01 0.777E-01 0.586E-11   0.150E-01 -.780E-01 0.853E-13   -.768E-03 0.946E-04 -.126E-20   0.554E-06 0.263E-05 0.205E-13
   -.155E-01 -.777E-01 -.506E-11   0.165E-01 0.779E-01 0.284E-13   -.773E-03 -.767E-04 0.112E-20   -.347E-05 0.802E-06 0.687E-14
   -.490E+00 0.352E-13 -.940E+00   0.494E+00 0.171E-12 0.949E+00   0.420E-02 0.543E-20 0.141E-02   0.693E-05 0.506E-13 0.370E-06
   -.493E+00 0.418E-13 0.933E+00   0.497E+00 0.142E-12 -.941E+00   0.409E-02 -.995E-20 -.134E-02   0.373E-05 0.908E-13 -.364E-05
   -.140E-01 0.620E-12 -.777E-01   0.150E-01 0.199E-12 0.780E-01   -.768E-03 0.232E-21 -.946E-04   0.575E-06 -.154E-12 -.256E-05
   -.155E-01 0.741E-11 0.777E-01   0.165E-01 0.199E-12 -.779E-01   -.773E-03 -.123E-20 0.767E-04   -.345E-05 -.189E-12 -.869E-06
   -.490E+00 0.690E-13 0.940E+00   0.494E+00 0.185E-12 -.949E+00   0.420E-02 0.803E-20 -.141E-02   0.693E-05 0.886E-13 -.370E-06
   -.493E+00 0.573E-13 -.933E+00   0.497E+00 0.128E-12 0.941E+00   0.409E-02 0.875E-22 0.134E-02   0.373E-05 0.109E-12 0.364E-05
   -.140E-01 0.699E-12 0.777E-01   0.150E-01 0.185E-12 -.780E-01   -.768E-03 0.800E-21 0.946E-04   0.575E-06 -.190E-12 0.256E-05
   -.155E-01 -.472E-11 -.777E-01   0.165E-01 0.156E-12 0.779E-01   -.773E-03 0.112E-20 -.767E-04   -.345E-05 -.208E-12 0.869E-06
   0.607E+00 0.231E-02 0.231E-02   -.614E+00 -.231E-02 -.231E-02   0.330E-02 -.212E-05 -.212E-05   -.193E-04 -.178E-05 -.178E-05
   -.343E+00 -.666E-03 -.666E-03   0.345E+00 0.693E-03 0.693E-03   -.139E-02 -.211E-04 -.211E-04   0.163E-04 -.138E-05 -.138E-05
   0.607E+00 -.231E-02 0.231E-02   -.614E+00 0.231E-02 -.231E-02   0.330E-02 0.212E-05 -.212E-05   -.193E-04 0.178E-05 -.178E-05
   -.343E+00 0.666E-03 -.666E-03   0.345E+00 -.693E-03 0.693E-03   -.139E-02 0.211E-04 -.211E-04   0.163E-04 0.138E-05 -.138E-05
   0.607E+00 0.231E-02 -.231E-02   -.614E+00 -.231E-02 0.231E-02   0.330E-02 -.212E-05 0.212E-05   -.193E-04 -.178E-05 0.178E-05
   -.343E+00 -.666E-03 0.666E-03   0.345E+00 0.693E-03 -.693E-03   -.139E-02 -.211E-04 0.211E-04   0.163E-04 -.138E-05 0.138E-05
   0.607E+00 -.231E-02 -.231E-02   -.614E+00 0.231E-02 0.231E-02   0.330E-02 0.212E-05 0.212E-05   -.193E-04 0.178E-05 0.178E-05
   -.343E+00 0.666E-03 0.666E-03   0.345E+00 -.693E-03 -.693E-03   -.139E-02 0.211E-04 0.211E-04   0.163E-04 0.138E-05 0.138E-05
 -----------------------------------------------------------------------------------------------
   -.159E-05 0.444E-11 -.113E-09   -.202E-13 -.945E-13 -.849E-13   0.211E-05 0.373E-19 0.481E-18   -.565E-06 -.444E-12 -.510E-12
 
 
 POSITION                                       TOTAL-FORCE (eV/Angst)
 -----------------------------------------------------------------------------------
      0.01000      0.00000      0.00000        -0.052179     -0.000000     -0.000000
      4.17285      0.00000      0.00000         0.004597      0.000000     -0.000000
      0.00000      4.17285      0.00000        -0.000773      0.000000      0.000000
      4.17285      4.17285      0.00000        -0.002108      0.000000     -0.000000
      0.00000      0.00000      4.17285        -0.000773     -0.000000      0.000000
      4.17285      0.00000      4.17285        -0.002108     -0.000000     -0.000000
      0.00000      4.17285      4.17285         0.000143     -0.000000     -0.000000
      4.17285      4.17285      4.17285        -0.000291     -0.000000      0.000000
      2.08643      2.08643      0.00000         0.007854      0.009872      0.000000
      6.25928      2.08643      0.00000         0.007593     -0.009502      0.000000
      2.08643      6.25928      0.00000         0.007854     -0.009872      0.000000
      6.25928      6.25928      0.00000         0.007593      0.009502     -0.000000
      2.08643      2.08643      4.17285         0.000261      0.000117      0.000000
      6.25928      2.08643      4.17285         0.000260     -0.000110     -0.000000
      2.08643      6.25928      4.17285         0.000261     -0.000117     -0.000000
      6.25928      6.25928      4.17285         0.000260      0.000110     -0.000000
      2.08643      0.00000      2.08643         0.007854      0.000000      0.009872
      6.25928      0.00000      2.08643         0.007593      0.000000     -0.009502
      2.08643      4.17285      2.08643         0.000261      0.000000      0.000117
      6.25928      4.17285      2.08643         0.000260      0.000000     -0.000110
      2.08643      0.00000      6.25928         0.007854     -0.000000     -0.009872
      6.25928      0.00000      6.25928         0.007593      0.000000      0.009502
      2.08643      4.17285      6.25928         0.000261     -0.000000     -0.000117
      6.25928      4.17285      6.25928         0.000260      0.000000      0.000110
      0.00000      2.08643      2.08643        -0.003366     -0.000007     -0.000007
      4.17285      2.08643      2.08643         0.000770      0.000004      0.000004
      0.00000      6.25928      2.08643        -0.003366      0.000007     -0.000007
      4.17285      6.25928      2.08643         0.000770     -0.000004      0.000004
      0.00000      2.08643      6.25928        -0.003366     -0.000007      0.000007
      4.17285      2.08643      6.25928         0.000770      0.000004     -0.000004
      0.00000      6.25928      6.25928        -0.003366      0.000007      0.000007
      4.17285      6.25928      6.25928         0.000770     -0.000004     -0.000004
 -----------------------------------------------------------------------------------
    total drift:                               -0.000000      0.000000     -0.000000


--------------------------------------------------------------------------------------------------------



 mean value of Nose-termostat <S>:     1.000 mean value of <T> :     0.000
 mean temperature <T/S>/<1/S>  :     0.000

     LOOP+:  VPU time31445.17: CPU time31505.91
  
  
 General timing and accounting informations for this job:
 ========================================================
  
                  Total CPU time used (sec):    31754.468
                            User time (sec):    31330.649
                          System time (sec):      423.819
                         Elapsed time (sec):    31815.749
  
                   Maximum memory used (kb):     8326676.
                   Average memory used (kb):           0.
  
                          Minor page faults:      1122027
                          Major page faults:            0
                 Voluntary context switches:         1039
