<?xml version="1.0" encoding="ISO-8859-1"?>
<modeling>
 <generator>
  <i name="program" type="string">vasp</i>
  <i name="version" type="string">4.6.28 </i>
  <i name="subversion" type="string">25Jul05 complex  parallel</i>
  <i name="platform" type="string">LinuxIFC</i>
  <i name="date" type="string">2017 01 12</i>
  <i name="time" type="string">12:38:49</i>
 </generator>
 <incar>
  <i type="string" name="PREC">accurate</i>
  <i type="int" name="IALGO">    38</i>
  <i type="logical" name="ADDGRID"> T  </i>
  <i name="EDIFF">      0.00000001</i>
  <i type="int" name="IBRION">    -1</i>
  <i name="ENCUT">    750.00000000</i>
  <i type="logical" name="LREAL"> F  </i>
  <i type="int" name="ISMEAR">     0</i>
  <i name="SIGMA">      0.01000000</i>
  <i type="logical" name="LWAVE"> F  </i>
  <i type="logical" name="LCHARG"> F  </i>
 </incar>
 <kpoints>
  <generation param="Gamma">
   <v type="int" name="divisions">      12      12      12</v>
   <v name="usershift">      0.00000000      0.00000000      0.00000000</v>
   <v name="genvec1">      0.08333333      0.00000000      0.00000000</v>
   <v name="genvec2">      0.00000000      0.08333333      0.00000000</v>
   <v name="genvec3">      0.00000000      0.00000000      0.08333333</v>
   <v name="shift">      0.00000000      0.00000000      0.00000000</v>
  </generation>
  <varray name="kpointlist" >
   <v>       0.00000000      0.00000000      0.00000000</v>
   <v>       0.08333333      0.00000000      0.00000000</v>
   <v>       0.16666667      0.00000000      0.00000000</v>
   <v>       0.25000000      0.00000000      0.00000000</v>
   <v>       0.33333333      0.00000000      0.00000000</v>
   <v>       0.41666667      0.00000000      0.00000000</v>
   <v>       0.50000000      0.00000000      0.00000000</v>
   <v>       0.00000000      0.08333333      0.00000000</v>
   <v>       0.08333333      0.08333333      0.00000000</v>
   <v>       0.16666667      0.08333333      0.00000000</v>
   <v>       0.25000000      0.08333333      0.00000000</v>
   <v>       0.33333333      0.08333333      0.00000000</v>
   <v>       0.41666667      0.08333333      0.00000000</v>
   <v>       0.50000000      0.08333333      0.00000000</v>
   <v>       0.00000000      0.16666667      0.00000000</v>
   <v>       0.08333333      0.16666667      0.00000000</v>
   <v>       0.16666667      0.16666667      0.00000000</v>
   <v>       0.25000000      0.16666667      0.00000000</v>
   <v>       0.33333333      0.16666667      0.00000000</v>
   <v>       0.41666667      0.16666667      0.00000000</v>
   <v>       0.50000000      0.16666667      0.00000000</v>
   <v>       0.00000000      0.25000000      0.00000000</v>
   <v>       0.08333333      0.25000000      0.00000000</v>
   <v>       0.16666667      0.25000000      0.00000000</v>
   <v>       0.25000000      0.25000000      0.00000000</v>
   <v>       0.33333333      0.25000000      0.00000000</v>
   <v>       0.41666667      0.25000000      0.00000000</v>
   <v>       0.50000000      0.25000000      0.00000000</v>
   <v>       0.00000000      0.33333333      0.00000000</v>
   <v>       0.08333333      0.33333333      0.00000000</v>
   <v>       0.16666667      0.33333333      0.00000000</v>
   <v>       0.25000000      0.33333333      0.00000000</v>
   <v>       0.33333333      0.33333333      0.00000000</v>
   <v>       0.41666667      0.33333333      0.00000000</v>
   <v>       0.50000000      0.33333333      0.00000000</v>
   <v>       0.00000000      0.41666667      0.00000000</v>
   <v>       0.08333333      0.41666667      0.00000000</v>
   <v>       0.16666667      0.41666667      0.00000000</v>
   <v>       0.25000000      0.41666667      0.00000000</v>
   <v>       0.33333333      0.41666667      0.00000000</v>
   <v>       0.41666667      0.41666667      0.00000000</v>
   <v>       0.50000000      0.41666667      0.00000000</v>
   <v>       0.00000000      0.50000000      0.00000000</v>
   <v>       0.08333333      0.50000000      0.00000000</v>
   <v>       0.16666667      0.50000000      0.00000000</v>
   <v>       0.25000000      0.50000000      0.00000000</v>
   <v>       0.33333333      0.50000000      0.00000000</v>
   <v>       0.41666667      0.50000000      0.00000000</v>
   <v>       0.50000000      0.50000000      0.00000000</v>
   <v>       0.00000000      0.08333333      0.08333333</v>
   <v>       0.08333333      0.08333333      0.08333333</v>
   <v>       0.16666667      0.08333333      0.08333333</v>
   <v>       0.25000000      0.08333333      0.08333333</v>
   <v>       0.33333333      0.08333333      0.08333333</v>
   <v>       0.41666667      0.08333333      0.08333333</v>
   <v>       0.50000000      0.08333333      0.08333333</v>
   <v>       0.00000000      0.16666667      0.08333333</v>
   <v>       0.08333333      0.16666667      0.08333333</v>
   <v>       0.16666667      0.16666667      0.08333333</v>
   <v>       0.25000000      0.16666667      0.08333333</v>
   <v>       0.33333333      0.16666667      0.08333333</v>
   <v>       0.41666667      0.16666667      0.08333333</v>
   <v>       0.50000000      0.16666667      0.08333333</v>
   <v>       0.00000000      0.25000000      0.08333333</v>
   <v>       0.08333333      0.25000000      0.08333333</v>
   <v>       0.16666667      0.25000000      0.08333333</v>
   <v>       0.25000000      0.25000000      0.08333333</v>
   <v>       0.33333333      0.25000000      0.08333333</v>
   <v>       0.41666667      0.25000000      0.08333333</v>
   <v>       0.50000000      0.25000000      0.08333333</v>
   <v>       0.00000000      0.33333333      0.08333333</v>
   <v>       0.08333333      0.33333333      0.08333333</v>
   <v>       0.16666667      0.33333333      0.08333333</v>
   <v>       0.25000000      0.33333333      0.08333333</v>
   <v>       0.33333333      0.33333333      0.08333333</v>
   <v>       0.41666667      0.33333333      0.08333333</v>
   <v>       0.50000000      0.33333333      0.08333333</v>
   <v>       0.00000000      0.41666667      0.08333333</v>
   <v>       0.08333333      0.41666667      0.08333333</v>
   <v>       0.16666667      0.41666667      0.08333333</v>
   <v>       0.25000000      0.41666667      0.08333333</v>
   <v>       0.33333333      0.41666667      0.08333333</v>
   <v>       0.41666667      0.41666667      0.08333333</v>
   <v>       0.50000000      0.41666667      0.08333333</v>
   <v>       0.00000000      0.50000000      0.08333333</v>
   <v>       0.08333333      0.50000000      0.08333333</v>
   <v>       0.16666667      0.50000000      0.08333333</v>
   <v>       0.25000000      0.50000000      0.08333333</v>
   <v>       0.33333333      0.50000000      0.08333333</v>
   <v>       0.41666667      0.50000000      0.08333333</v>
   <v>       0.50000000      0.50000000      0.08333333</v>
   <v>       0.00000000      0.16666667      0.16666667</v>
   <v>       0.08333333      0.16666667      0.16666667</v>
   <v>       0.16666667      0.16666667      0.16666667</v>
   <v>       0.25000000      0.16666667      0.16666667</v>
   <v>       0.33333333      0.16666667      0.16666667</v>
   <v>       0.41666667      0.16666667      0.16666667</v>
   <v>       0.50000000      0.16666667      0.16666667</v>
   <v>       0.00000000      0.25000000      0.16666667</v>
   <v>       0.08333333      0.25000000      0.16666667</v>
   <v>       0.16666667      0.25000000      0.16666667</v>
   <v>       0.25000000      0.25000000      0.16666667</v>
   <v>       0.33333333      0.25000000      0.16666667</v>
   <v>       0.41666667      0.25000000      0.16666667</v>
   <v>       0.50000000      0.25000000      0.16666667</v>
   <v>       0.00000000      0.33333333      0.16666667</v>
   <v>       0.08333333      0.33333333      0.16666667</v>
   <v>       0.16666667      0.33333333      0.16666667</v>
   <v>       0.25000000      0.33333333      0.16666667</v>
   <v>       0.33333333      0.33333333      0.16666667</v>
   <v>       0.41666667      0.33333333      0.16666667</v>
   <v>       0.50000000      0.33333333      0.16666667</v>
   <v>       0.00000000      0.41666667      0.16666667</v>
   <v>       0.08333333      0.41666667      0.16666667</v>
   <v>       0.16666667      0.41666667      0.16666667</v>
   <v>       0.25000000      0.41666667      0.16666667</v>
   <v>       0.33333333      0.41666667      0.16666667</v>
   <v>       0.41666667      0.41666667      0.16666667</v>
   <v>       0.50000000      0.41666667      0.16666667</v>
   <v>       0.00000000      0.50000000      0.16666667</v>
   <v>       0.08333333      0.50000000      0.16666667</v>
   <v>       0.16666667      0.50000000      0.16666667</v>
   <v>       0.25000000      0.50000000      0.16666667</v>
   <v>       0.33333333      0.50000000      0.16666667</v>
   <v>       0.41666667      0.50000000      0.16666667</v>
   <v>       0.50000000      0.50000000      0.16666667</v>
   <v>       0.00000000      0.25000000      0.25000000</v>
   <v>       0.08333333      0.25000000      0.25000000</v>
   <v>       0.16666667      0.25000000      0.25000000</v>
   <v>       0.25000000      0.25000000      0.25000000</v>
   <v>       0.33333333      0.25000000      0.25000000</v>
   <v>       0.41666667      0.25000000      0.25000000</v>
   <v>       0.50000000      0.25000000      0.25000000</v>
   <v>       0.00000000      0.33333333      0.25000000</v>
   <v>       0.08333333      0.33333333      0.25000000</v>
   <v>       0.16666667      0.33333333      0.25000000</v>
   <v>       0.25000000      0.33333333      0.25000000</v>
   <v>       0.33333333      0.33333333      0.25000000</v>
   <v>       0.41666667      0.33333333      0.25000000</v>
   <v>       0.50000000      0.33333333      0.25000000</v>
   <v>       0.00000000      0.41666667      0.25000000</v>
   <v>       0.08333333      0.41666667      0.25000000</v>
   <v>       0.16666667      0.41666667      0.25000000</v>
   <v>       0.25000000      0.41666667      0.25000000</v>
   <v>       0.33333333      0.41666667      0.25000000</v>
   <v>       0.41666667      0.41666667      0.25000000</v>
   <v>       0.50000000      0.41666667      0.25000000</v>
   <v>       0.00000000      0.50000000      0.25000000</v>
   <v>       0.08333333      0.50000000      0.25000000</v>
   <v>       0.16666667      0.50000000      0.25000000</v>
   <v>       0.25000000      0.50000000      0.25000000</v>
   <v>       0.33333333      0.50000000      0.25000000</v>
   <v>       0.41666667      0.50000000      0.25000000</v>
   <v>       0.50000000      0.50000000      0.25000000</v>
   <v>       0.00000000      0.33333333      0.33333333</v>
   <v>       0.08333333      0.33333333      0.33333333</v>
   <v>       0.16666667      0.33333333      0.33333333</v>
   <v>       0.25000000      0.33333333      0.33333333</v>
   <v>       0.33333333      0.33333333      0.33333333</v>
   <v>       0.41666667      0.33333333      0.33333333</v>
   <v>       0.50000000      0.33333333      0.33333333</v>
   <v>       0.00000000      0.41666667      0.33333333</v>
   <v>       0.08333333      0.41666667      0.33333333</v>
   <v>       0.16666667      0.41666667      0.33333333</v>
   <v>       0.25000000      0.41666667      0.33333333</v>
   <v>       0.33333333      0.41666667      0.33333333</v>
   <v>       0.41666667      0.41666667      0.33333333</v>
   <v>       0.50000000      0.41666667      0.33333333</v>
   <v>       0.00000000      0.50000000      0.33333333</v>
   <v>       0.08333333      0.50000000      0.33333333</v>
   <v>       0.16666667      0.50000000      0.33333333</v>
   <v>       0.25000000      0.50000000      0.33333333</v>
   <v>       0.33333333      0.50000000      0.33333333</v>
   <v>       0.41666667      0.50000000      0.33333333</v>
   <v>       0.50000000      0.50000000      0.33333333</v>
   <v>       0.00000000      0.41666667      0.41666667</v>
   <v>       0.08333333      0.41666667      0.41666667</v>
   <v>       0.16666667      0.41666667      0.41666667</v>
   <v>       0.25000000      0.41666667      0.41666667</v>
   <v>       0.33333333      0.41666667      0.41666667</v>
   <v>       0.41666667      0.41666667      0.41666667</v>
   <v>       0.50000000      0.41666667      0.41666667</v>
   <v>       0.00000000      0.50000000      0.41666667</v>
   <v>       0.08333333      0.50000000      0.41666667</v>
   <v>       0.16666667      0.50000000      0.41666667</v>
   <v>       0.25000000      0.50000000      0.41666667</v>
   <v>       0.33333333      0.50000000      0.41666667</v>
   <v>       0.41666667      0.50000000      0.41666667</v>
   <v>       0.50000000      0.50000000      0.41666667</v>
   <v>       0.00000000      0.50000000      0.50000000</v>
   <v>       0.08333333      0.50000000      0.50000000</v>
   <v>       0.16666667      0.50000000      0.50000000</v>
   <v>       0.25000000      0.50000000      0.50000000</v>
   <v>       0.33333333      0.50000000      0.50000000</v>
   <v>       0.41666667      0.50000000      0.50000000</v>
   <v>       0.50000000      0.50000000      0.50000000</v>
  </varray>
  <varray name="weights" >
   <v>       0.00057870</v>
   <v>       0.00115741</v>
   <v>       0.00115741</v>
   <v>       0.00115741</v>
   <v>       0.00115741</v>
   <v>       0.00115741</v>
   <v>       0.00057870</v>
   <v>       0.00231481</v>
   <v>       0.00462963</v>
   <v>       0.00462963</v>
   <v>       0.00462963</v>
   <v>       0.00462963</v>
   <v>       0.00462963</v>
   <v>       0.00231481</v>
   <v>       0.00231481</v>
   <v>       0.00462963</v>
   <v>       0.00462963</v>
   <v>       0.00462963</v>
   <v>       0.00462963</v>
   <v>       0.00462963</v>
   <v>       0.00231481</v>
   <v>       0.00231481</v>
   <v>       0.00462963</v>
   <v>       0.00462963</v>
   <v>       0.00462963</v>
   <v>       0.00462963</v>
   <v>       0.00462963</v>
   <v>       0.00231481</v>
   <v>       0.00231481</v>
   <v>       0.00462963</v>
   <v>       0.00462963</v>
   <v>       0.00462963</v>
   <v>       0.00462963</v>
   <v>       0.00462963</v>
   <v>       0.00231481</v>
   <v>       0.00231481</v>
   <v>       0.00462963</v>
   <v>       0.00462963</v>
   <v>       0.00462963</v>
   <v>       0.00462963</v>
   <v>       0.00462963</v>
   <v>       0.00231481</v>
   <v>       0.00115741</v>
   <v>       0.00231481</v>
   <v>       0.00231481</v>
   <v>       0.00231481</v>
   <v>       0.00231481</v>
   <v>       0.00231481</v>
   <v>       0.00115741</v>
   <v>       0.00231481</v>
   <v>       0.00462963</v>
   <v>       0.00462963</v>
   <v>       0.00462963</v>
   <v>       0.00462963</v>
   <v>       0.00462963</v>
   <v>       0.00231481</v>
   <v>       0.00462963</v>
   <v>       0.00925926</v>
   <v>       0.00925926</v>
   <v>       0.00925926</v>
   <v>       0.00925926</v>
   <v>       0.00925926</v>
   <v>       0.00462963</v>
   <v>       0.00462963</v>
   <v>       0.00925926</v>
   <v>       0.00925926</v>
   <v>       0.00925926</v>
   <v>       0.00925926</v>
   <v>       0.00925926</v>
   <v>       0.00462963</v>
   <v>       0.00462963</v>
   <v>       0.00925926</v>
   <v>       0.00925926</v>
   <v>       0.00925926</v>
   <v>       0.00925926</v>
   <v>       0.00925926</v>
   <v>       0.00462963</v>
   <v>       0.00462963</v>
   <v>       0.00925926</v>
   <v>       0.00925926</v>
   <v>       0.00925926</v>
   <v>       0.00925926</v>
   <v>       0.00925926</v>
   <v>       0.00462963</v>
   <v>       0.00231481</v>
   <v>       0.00462963</v>
   <v>       0.00462963</v>
   <v>       0.00462963</v>
   <v>       0.00462963</v>
   <v>       0.00462963</v>
   <v>       0.00231481</v>
   <v>       0.00231481</v>
   <v>       0.00462963</v>
   <v>       0.00462963</v>
   <v>       0.00462963</v>
   <v>       0.00462963</v>
   <v>       0.00462963</v>
   <v>       0.00231481</v>
   <v>       0.00462963</v>
   <v>       0.00925926</v>
   <v>       0.00925926</v>
   <v>       0.00925926</v>
   <v>       0.00925926</v>
   <v>       0.00925926</v>
   <v>       0.00462963</v>
   <v>       0.00462963</v>
   <v>       0.00925926</v>
   <v>       0.00925926</v>
   <v>       0.00925926</v>
   <v>       0.00925926</v>
   <v>       0.00925926</v>
   <v>       0.00462963</v>
   <v>       0.00462963</v>
   <v>       0.00925926</v>
   <v>       0.00925926</v>
   <v>       0.00925926</v>
   <v>       0.00925926</v>
   <v>       0.00925926</v>
   <v>       0.00462963</v>
   <v>       0.00231481</v>
   <v>       0.00462963</v>
   <v>       0.00462963</v>
   <v>       0.00462963</v>
   <v>       0.00462963</v>
   <v>       0.00462963</v>
   <v>       0.00231481</v>
   <v>       0.00231481</v>
   <v>       0.00462963</v>
   <v>       0.00462963</v>
   <v>       0.00462963</v>
   <v>       0.00462963</v>
   <v>       0.00462963</v>
   <v>       0.00231481</v>
   <v>       0.00462963</v>
   <v>       0.00925926</v>
   <v>       0.00925926</v>
   <v>       0.00925926</v>
   <v>       0.00925926</v>
   <v>       0.00925926</v>
   <v>       0.00462963</v>
   <v>       0.00462963</v>
   <v>       0.00925926</v>
   <v>       0.00925926</v>
   <v>       0.00925926</v>
   <v>       0.00925926</v>
   <v>       0.00925926</v>
   <v>       0.00462963</v>
   <v>       0.00231481</v>
   <v>       0.00462963</v>
   <v>       0.00462963</v>
   <v>       0.00462963</v>
   <v>       0.00462963</v>
   <v>       0.00462963</v>
   <v>       0.00231481</v>
   <v>       0.00231481</v>
   <v>       0.00462963</v>
   <v>       0.00462963</v>
   <v>       0.00462963</v>
   <v>       0.00462963</v>
   <v>       0.00462963</v>
   <v>       0.00231481</v>
   <v>       0.00462963</v>
   <v>       0.00925926</v>
   <v>       0.00925926</v>
   <v>       0.00925926</v>
   <v>       0.00925926</v>
   <v>       0.00925926</v>
   <v>       0.00462963</v>
   <v>       0.00231481</v>
   <v>       0.00462963</v>
   <v>       0.00462963</v>
   <v>       0.00462963</v>
   <v>       0.00462963</v>
   <v>       0.00462963</v>
   <v>       0.00231481</v>
   <v>       0.00231481</v>
   <v>       0.00462963</v>
   <v>       0.00462963</v>
   <v>       0.00462963</v>
   <v>       0.00462963</v>
   <v>       0.00462963</v>
   <v>       0.00231481</v>
   <v>       0.00231481</v>
   <v>       0.00462963</v>
   <v>       0.00462963</v>
   <v>       0.00462963</v>
   <v>       0.00462963</v>
   <v>       0.00462963</v>
   <v>       0.00231481</v>
   <v>       0.00057870</v>
   <v>       0.00115741</v>
   <v>       0.00115741</v>
   <v>       0.00115741</v>
   <v>       0.00115741</v>
   <v>       0.00115741</v>
   <v>       0.00057870</v>
  </varray>
 </kpoints>
 <parameters>
  <separator name="general" >
   <i type="string" name="SYSTEM">unknown system</i>
   <i type="logical" name="LCOMPAT"> F  </i>
  </separator>
  <separator name="electronic" >
   <i type="string" name="PREC">accura</i>
   <i name="ENMAX">    750.00000000</i>
   <i name="ENAUG">    356.67000000</i>
   <i name="EDIFF">      0.00000001</i>
   <i type="int" name="IALGO">    38</i>
   <i type="int" name="IWAVPR">    10</i>
   <i type="int" name="NBANDS">   211</i>
   <i name="NELECT">    352.00000000</i>
   <separator name="electronic smearing" >
    <i type="int" name="ISMEAR">     0</i>
    <i name="SIGMA">      0.01000000</i>
   </separator>
   <separator name="electronic projectors" >
    <i type="logical" name="LREAL"> F  </i>
    <v name="ROPT">      0.00000000</v>
    <i type="int" name="LMAXPAW">  -100</i>
    <i type="int" name="LMAXMIX">     2</i>
   </separator>
   <separator name="electronic startup" >
    <i type="int" name="ISTART">     0</i>
    <i type="int" name="ICHARG">     2</i>
    <i type="int" name="INIWAV">     1</i>
   </separator>
   <separator name="electronic spin" >
    <i type="int" name="ISPIN">     1</i>
    <i type="logical" name="LNONCOLLINEAR"> F  </i>
    <v name="MAGMOM">      1.00000000      1.00000000      1.00000000      1.00000000      1.00000000      1.00000000      1.00000000      1.00000000      1.00000000      1.00000000      1.00000000      1.00000000      1.00000000      1.00000000      1.00000000      1.00000000      1.00000000      1.00000000      1.00000000      1.00000000
      1.00000000      1.00000000      1.00000000      1.00000000      1.00000000      1.00000000      1.00000000      1.00000000      1.00000000      1.00000000      1.00000000      1.00000000</v>
    <i name="NUPDOWN">     -1.00000000</i>
    <i type="logical" name="LSORBIT"> F  </i>
    <v name="SAXIS">      0.00000000      0.00000000      1.00000000</v>
    <i type="logical" name="LSPIRAL"> F  </i>
    <v name="QSPIRAL">      0.00000000      0.00000000      0.00000000</v>
    <i type="logical" name="LZEROZ"> F  </i>
   </separator>
   <separator name="electronic exchange-correlation" >
    <i type="string" name="GGA">--</i>
    <i type="int" name="VOSKOWN">     0</i>
    <i type="logical" name="LASPH"> F  </i>
    <i type="logical" name="LMETAGGA"> F  </i>
    <i type="string" name="GGA2">--</i>
   </separator>
   <separator name="electronic convergence" >
    <i type="int" name="NELM">    60</i>
    <i type="int" name="NELMDL">     0</i>
    <i type="int" name="NELMIN">     2</i>
    <i name="ENINI">    750.00000000</i>
    <separator name="electronic convergence detail" >
     <i type="logical" name="LDIAG"> T  </i>
     <i name="WEIMIN">      0.00000000</i>
     <i name="EBREAK">      0.00000000</i>
     <i name="DEPER">      0.30000000</i>
     <i type="int" name="NRMM">     4</i>
     <i name="TIME">      0.10000000</i>
    </separator>
   </separator>
   <separator name="electronic mixer" >
    <i name="AMIX">      0.40000000</i>
    <i name="BMIX">      1.00000000</i>
    <i name="AMIN">      0.10000000</i>
    <i name="AMIX_MAG">      1.60000000</i>
    <i name="BMIX_MAG">      1.00000000</i>
    <separator name="electronic mixer details" >
     <i type="int" name="IMIX">     4</i>
     <i type="int" name="MAXMIX">   -45</i>
     <i name="WC">    100.00000000</i>
     <i type="int" name="INIMIX">     1</i>
     <i type="int" name="MIXPRE">     1</i>
     <i type="int" name="MREMOVE">     5</i>
    </separator>
   </separator>
   <separator name="electronic dipolcorrection" >
    <i type="int" name="IDIPOL">     0</i>
    <i type="logical" name="LDIPOL"> F  </i>
    <v name="DIPOL">   -100.00000000</v>
    <i name="EFIELD">      0.00000000</i>
   </separator>
  </separator>
  <separator name="grids" >
   <i type="int" name="NGX">    80</i>
   <i type="int" name="NGY">    80</i>
   <i type="int" name="NGZ">    80</i>
   <i type="int" name="NGXF">   160</i>
   <i type="int" name="NGYF">   160</i>
   <i type="int" name="NGZF">   160</i>
   <i type="logical" name="ADDGRID"> T  </i>
  </separator>
  <separator name="ionic" >
   <i type="int" name="NSW">     0</i>
   <i type="int" name="IBRION">    -1</i>
   <i type="int" name="ISIF">     2</i>
   <i name="PSTRESS">      0.00000000</i>
   <i name="EDIFFG">      0.00000010</i>
   <i type="int" name="NFREE">     0</i>
   <i name="POTIM">      0.50000000</i>
   <i name="SMASS">     -3.00000000</i>
  </separator>
  <separator name="ionic md" >
   <i name="TEBEG">      0.00010000</i>
   <i name="TEEND">      0.00010000</i>
   <i type="int" name="NBLOCK">     1</i>
   <i type="int" name="KBLOCK">     1</i>
   <i type="int" name="NPACO">   256</i>
   <i name="APACO">     16.00000000</i>
  </separator>
  <separator name="symmetry" >
   <i type="int" name="ISYM">     2</i>
   <i name="SYMPREC">      0.00001000</i>
  </separator>
  <separator name="dos" >
   <i type="logical" name="LORBIT"> F  </i>
   <v name="RWIGS">     -1.00000000</v>
   <i type="int" name="NEDOS">   301</i>
   <i name="EMIN">     10.00000000</i>
   <i name="EMAX">    -10.00000000</i>
  </separator>
  <separator name="writing" >
   <i type="int" name="NWRITE">     2</i>
   <i type="logical" name="LWAVE"> F  </i>
   <i type="logical" name="LCHARG"> F  </i>
   <i type="logical" name="LPARD"> F  </i>
   <i type="logical" name="LVTOT"> F  </i>
   <i type="logical" name="LELF"> F  </i>
   <i type="logical" name="LOPTICS"> F  </i>
   <i name="STM">      0.00000000</i>
  </separator>
  <separator name="performance" >
   <i type="int" name="NPAR">     8</i>
   <i type="int" name="NSIM">     4</i>
   <i type="int" name="NBLK">   256</i>
   <i type="logical" name="LPLANE"> T  </i>
   <i type="logical" name="LCRITICAL_MEM"> F  </i>
   <i type="logical" name="LSCALAPACK"> F  </i>
   <i type="logical" name="LSCALU"> F  </i>
   <i type="logical" name="LASYNC"> F  </i>
  </separator>
  <separator name="miscellaneous" >
   <i type="int" name="IDIOT">     3</i>
   <i type="logical" name="LMUSIC"> F  </i>
   <v name="POMASS">    196.96600000</v>
   <i type="logical" name="LCORR"> T  </i>
  </separator>
  <i type="logical" name="LREAL_COMPAT"> F  </i>
  <i type="logical" name="GGA_COMPAT"> T  </i>
  <i type="logical" name="LBERRY"> F  </i>
  <i type="int" name="ICORELEVEL">     0</i>
  <i type="logical" name="LDAU"> F  </i>
  <i type="int" name="I_CONSTRAINED_M">     0</i>
 </parameters>
 <atominfo>
  <atoms>      32</atoms>
  <types>       1</types>
  <array name="atoms" >
   <dimension dim="1">ion</dimension>
   <field type="string">element</field>
   <field type="int">atomtype</field>
   <set>
    <rc><c>Au</c><c>   1</c></rc>
    <rc><c>Au</c><c>   1</c></rc>
    <rc><c>Au</c><c>   1</c></rc>
    <rc><c>Au</c><c>   1</c></rc>
    <rc><c>Au</c><c>   1</c></rc>
    <rc><c>Au</c><c>   1</c></rc>
    <rc><c>Au</c><c>   1</c></rc>
    <rc><c>Au</c><c>   1</c></rc>
    <rc><c>Au</c><c>   1</c></rc>
    <rc><c>Au</c><c>   1</c></rc>
    <rc><c>Au</c><c>   1</c></rc>
    <rc><c>Au</c><c>   1</c></rc>
    <rc><c>Au</c><c>   1</c></rc>
    <rc><c>Au</c><c>   1</c></rc>
    <rc><c>Au</c><c>   1</c></rc>
    <rc><c>Au</c><c>   1</c></rc>
    <rc><c>Au</c><c>   1</c></rc>
    <rc><c>Au</c><c>   1</c></rc>
    <rc><c>Au</c><c>   1</c></rc>
    <rc><c>Au</c><c>   1</c></rc>
    <rc><c>Au</c><c>   1</c></rc>
    <rc><c>Au</c><c>   1</c></rc>
    <rc><c>Au</c><c>   1</c></rc>
    <rc><c>Au</c><c>   1</c></rc>
    <rc><c>Au</c><c>   1</c></rc>
    <rc><c>Au</c><c>   1</c></rc>
    <rc><c>Au</c><c>   1</c></rc>
    <rc><c>Au</c><c>   1</c></rc>
    <rc><c>Au</c><c>   1</c></rc>
    <rc><c>Au</c><c>   1</c></rc>
    <rc><c>Au</c><c>   1</c></rc>
    <rc><c>Au</c><c>   1</c></rc>
   </set>
  </array>
  <array name="atomtypes" >
   <dimension dim="1">type</dimension>
   <field type="int">atomspertype</field>
   <field type="string">element</field>
   <field>mass</field>
   <field>valence</field>
   <field type="string">pseudopotential</field>
   <set>
    <rc><c>  32</c><c>Au</c><c>    196.96600000</c><c>     11.00000000</c><c> PAW_PBE Au 06Sep2000                   </c></rc>
   </set>
  </array>
 </atominfo>
 <structure name="initialpos" >
  <crystal>
   <varray name="basis" >
    <v>       8.34570380      0.00000000      0.00000000</v>
    <v>       0.00000000      8.34570380      0.00000000</v>
    <v>       0.00000000      0.00000000      8.34570380</v>
   </varray>
   <i name="volume">    581.28471283</i>
   <varray name="rec_basis" >
    <v>       0.11982213      0.00000000      0.00000000</v>
    <v>       0.00000000      0.11982213      0.00000000</v>
    <v>       0.00000000      0.00000000      0.11982213</v>
   </varray>
  </crystal>
  <varray name="positions" >
   <v>       0.00119822      0.00000000      0.00000000</v>
   <v>       0.50000000      0.00000000      0.00000000</v>
   <v>       0.00000000      0.50000000      0.00000000</v>
   <v>       0.50000000      0.50000000      0.00000000</v>
   <v>       0.00000000      0.00000000      0.50000000</v>
   <v>       0.50000000      0.00000000      0.50000000</v>
   <v>       0.00000000      0.50000000      0.50000000</v>
   <v>       0.50000000      0.50000000      0.50000000</v>
   <v>       0.25000000      0.25000000      0.00000000</v>
   <v>       0.75000000      0.25000000      0.00000000</v>
   <v>       0.25000000      0.75000000      0.00000000</v>
   <v>       0.75000000      0.75000000      0.00000000</v>
   <v>       0.25000000      0.25000000      0.50000000</v>
   <v>       0.75000000      0.25000000      0.50000000</v>
   <v>       0.25000000      0.75000000      0.50000000</v>
   <v>       0.75000000      0.75000000      0.50000000</v>
   <v>       0.25000000      0.00000000      0.25000000</v>
   <v>       0.75000000      0.00000000      0.25000000</v>
   <v>       0.25000000      0.50000000      0.25000000</v>
   <v>       0.75000000      0.50000000      0.25000000</v>
   <v>       0.25000000      0.00000000      0.75000000</v>
   <v>       0.75000000      0.00000000      0.75000000</v>
   <v>       0.25000000      0.50000000      0.75000000</v>
   <v>       0.75000000      0.50000000      0.75000000</v>
   <v>       0.00000000      0.25000000      0.25000000</v>
   <v>       0.50000000      0.25000000      0.25000000</v>
   <v>       0.00000000      0.75000000      0.25000000</v>
   <v>       0.50000000      0.75000000      0.25000000</v>
   <v>       0.00000000      0.25000000      0.75000000</v>
   <v>       0.50000000      0.25000000      0.75000000</v>
   <v>       0.00000000      0.75000000      0.75000000</v>
   <v>       0.50000000      0.75000000      0.75000000</v>
  </varray>
 </structure>
 <calculation>
  <scstep>
   <time name="dav"> 1805.31 1810.41</time>
   <time name="total"> 1806.54 1811.64</time>
   <energy>
    <i name="alphaZ">   3299.18892974</i>
    <i name="ewald"> -30630.52956301</i>
    <i name="hartreedc">  -4230.53335063</i>
    <i name="XCdc">    484.66791212</i>
    <i name="pawpsdc">  23920.39735419</i>
    <i name="pawaedc"> -23172.13309131</i>
    <i name="eentropy">     -0.00042739</i>
    <i name="bandstr">   5428.41914641</i>
    <i name="atom">  29633.78979189</i>
    <i name="e_fr_energy">   4733.26670201</i>
    <i name="e_wo_entrp">   4733.26712940</i>
    <i name="e_0_energy">   4733.26691571</i>
   </energy>
  </scstep>
  <scstep>
   <time name="dav"> 1810.54 1813.51</time>
   <time name="total"> 1810.63 1813.61</time>
   <energy>
    <i name="e_fr_energy">    163.71406575</i>
    <i name="e_wo_entrp">    163.71456106</i>
    <i name="e_0_energy">    163.71431340</i>
   </energy>
  </scstep>
  <scstep>
   <time name="dav"> 1944.22 1947.41</time>
   <time name="total"> 1944.32 1947.52</time>
   <energy>
    <i name="e_fr_energy">   -103.51218415</i>
    <i name="e_wo_entrp">   -103.51144394</i>
    <i name="e_0_energy">   -103.51181405</i>
   </energy>
  </scstep>
  <scstep>
   <time name="dav"> 1907.53 1911.65</time>
   <time name="total"> 1907.63 1911.75</time>
   <energy>
    <i name="e_fr_energy">   -112.43850333</i>
    <i name="e_wo_entrp">   -112.43772184</i>
    <i name="e_0_energy">   -112.43811259</i>
   </energy>
  </scstep>
  <scstep>
   <time name="dav"> 1915.54 1920.22</time>
   <time name="total"> 1977.74 1982.53</time>
   <energy>
    <i name="e_fr_energy">   -112.58549500</i>
    <i name="e_wo_entrp">   -112.58471562</i>
    <i name="e_0_energy">   -112.58510531</i>
   </energy>
  </scstep>
  <scstep>
   <time name="dav"> 1885.97 1889.05</time>
   <time name="total"> 1949.39 1952.58</time>
   <energy>
    <i name="e_fr_energy">   -105.22982915</i>
    <i name="e_wo_entrp">   -105.22917240</i>
    <i name="e_0_energy">   -105.22950078</i>
   </energy>
  </scstep>
  <scstep>
   <time name="dav"> 1962.06 1965.28</time>
   <time name="total"> 2026.00 2029.32</time>
   <energy>
    <i name="e_fr_energy">   -104.77016811</i>
    <i name="e_wo_entrp">   -104.76966094</i>
    <i name="e_0_energy">   -104.76991452</i>
   </energy>
  </scstep>
  <scstep>
   <time name="dav"> 1857.69 1861.85</time>
   <time name="total"> 1921.13 1925.43</time>
   <energy>
    <i name="e_fr_energy">   -104.68325779</i>
    <i name="e_wo_entrp">   -104.68275000</i>
    <i name="e_0_energy">   -104.68300390</i>
   </energy>
  </scstep>
  <scstep>
   <time name="dav"> 1974.05 1977.28</time>
   <time name="total"> 2037.56 2040.89</time>
   <energy>
    <i name="e_fr_energy">   -104.68334352</i>
    <i name="e_wo_entrp">   -104.68286055</i>
    <i name="e_0_energy">   -104.68310204</i>
   </energy>
  </scstep>
  <scstep>
   <time name="dav"> 1864.70 1867.84</time>
   <time name="total"> 1928.31 1931.56</time>
   <energy>
    <i name="e_fr_energy">   -104.68331777</i>
    <i name="e_wo_entrp">   -104.68283016</i>
    <i name="e_0_energy">   -104.68307397</i>
   </energy>
  </scstep>
  <scstep>
   <time name="dav"> 1915.38 1919.38</time>
   <time name="total"> 1978.33 1982.43</time>
   <energy>
    <i name="e_fr_energy">   -104.68331978</i>
    <i name="e_wo_entrp">   -104.68283080</i>
    <i name="e_0_energy">   -104.68307529</i>
   </energy>
  </scstep>
  <scstep>
   <time name="dav"> 1884.98 1889.71</time>
   <time name="total"> 1948.20 1953.08</time>
   <energy>
    <i name="e_fr_energy">   -104.68332260</i>
    <i name="e_wo_entrp">   -104.68283343</i>
    <i name="e_0_energy">   -104.68307801</i>
   </energy>
  </scstep>
  <scstep>
   <time name="dav"> 1791.41 1795.19</time>
   <time name="total"> 1855.22 1859.10</time>
   <energy>
    <i name="e_fr_energy">   -104.68332176</i>
    <i name="e_wo_entrp">   -104.68283255</i>
    <i name="e_0_energy">   -104.68307716</i>
   </energy>
  </scstep>
  <scstep>
   <time name="dav"> 1241.72 1243.77</time>
   <time name="total"> 1305.59 1307.74</time>
   <energy>
    <i name="e_fr_energy">   -104.68332114</i>
    <i name="e_wo_entrp">   -104.68283192</i>
    <i name="e_0_energy">   -104.68307653</i>
   </energy>
  </scstep>
  <scstep>
   <time name="dav"> 1198.09 1200.05</time>
   <time name="total"> 1261.84 1263.90</time>
   <energy>
    <i name="e_fr_energy">   -104.68332112</i>
    <i name="e_wo_entrp">   -104.68283190</i>
    <i name="e_0_energy">   -104.68307651</i>
   </energy>
  </scstep>
  <scstep>
   <time name="dav"> 1189.80 1191.77</time>
   <time name="total"> 1191.11 1193.08</time>
   <energy>
    <i name="alphaZ">   3299.18892974</i>
    <i name="ewald"> -30630.52956301</i>
    <i name="hartreedc">  -3886.54516260</i>
    <i name="XCdc">    469.21111242</i>
    <i name="pawpsdc">  23937.05626977</i>
    <i name="pawaedc"> -23265.73236797</i>
    <i name="eentropy">     -0.00048922</i>
    <i name="bandstr">    338.87815785</i>
    <i name="atom">  29633.78979189</i>
    <i name="e_fr_energy">   -104.68332112</i>
    <i name="e_wo_entrp">   -104.68283190</i>
    <i name="e_0_energy">   -104.68307651</i>
   </energy>
  </scstep>
  <structure>
   <crystal>
    <varray name="basis" >
     <v>       8.34570380      0.00000000      0.00000000</v>
     <v>       0.00000000      8.34570380      0.00000000</v>
     <v>       0.00000000      0.00000000      8.34570380</v>
    </varray>
    <i name="volume">    581.28471283</i>
    <varray name="rec_basis" >
     <v>       0.11982213      0.00000000      0.00000000</v>
     <v>       0.00000000      0.11982213      0.00000000</v>
     <v>       0.00000000      0.00000000      0.11982213</v>
    </varray>
   </crystal>
   <varray name="positions" >
    <v>       0.00119822      0.00000000      0.00000000</v>
    <v>       0.50000000      0.00000000      0.00000000</v>
    <v>       0.00000000      0.50000000      0.00000000</v>
    <v>       0.50000000      0.50000000      0.00000000</v>
    <v>       0.00000000      0.00000000      0.50000000</v>
    <v>       0.50000000      0.00000000      0.50000000</v>
    <v>       0.00000000      0.50000000      0.50000000</v>
    <v>       0.50000000      0.50000000      0.50000000</v>
    <v>       0.25000000      0.25000000      0.00000000</v>
    <v>       0.75000000      0.25000000      0.00000000</v>
    <v>       0.25000000      0.75000000      0.00000000</v>
    <v>       0.75000000      0.75000000      0.00000000</v>
    <v>       0.25000000      0.25000000      0.50000000</v>
    <v>       0.75000000      0.25000000      0.50000000</v>
    <v>       0.25000000      0.75000000      0.50000000</v>
    <v>       0.75000000      0.75000000      0.50000000</v>
    <v>       0.25000000      0.00000000      0.25000000</v>
    <v>       0.75000000      0.00000000      0.25000000</v>
    <v>       0.25000000      0.50000000      0.25000000</v>
    <v>       0.75000000      0.50000000      0.25000000</v>
    <v>       0.25000000      0.00000000      0.75000000</v>
    <v>       0.75000000      0.00000000      0.75000000</v>
    <v>       0.25000000      0.50000000      0.75000000</v>
    <v>       0.75000000      0.50000000      0.75000000</v>
    <v>       0.00000000      0.25000000      0.25000000</v>
    <v>       0.50000000      0.25000000      0.25000000</v>
    <v>       0.00000000      0.75000000      0.25000000</v>
    <v>       0.50000000      0.75000000      0.25000000</v>
    <v>       0.00000000      0.25000000      0.75000000</v>
    <v>       0.50000000      0.25000000      0.75000000</v>
    <v>       0.00000000      0.75000000      0.75000000</v>
    <v>       0.50000000      0.75000000      0.75000000</v>
   </varray>
  </structure>
  <varray name="forces" >
   <v>      -0.05217911     -0.00000000     -0.00000000</v>
   <v>       0.00459708      0.00000000     -0.00000000</v>
   <v>      -0.00077320      0.00000000      0.00000000</v>
   <v>      -0.00210772      0.00000000     -0.00000000</v>
   <v>      -0.00077320     -0.00000000      0.00000000</v>
   <v>      -0.00210772     -0.00000000     -0.00000000</v>
   <v>       0.00014340     -0.00000000     -0.00000000</v>
   <v>      -0.00029100     -0.00000000      0.00000000</v>
   <v>       0.00785445      0.00987242      0.00000000</v>
   <v>       0.00759292     -0.00950227      0.00000000</v>
   <v>       0.00785445     -0.00987242      0.00000000</v>
   <v>       0.00759292      0.00950227     -0.00000000</v>
   <v>       0.00026102      0.00011684      0.00000000</v>
   <v>       0.00026039     -0.00011020     -0.00000000</v>
   <v>       0.00026102     -0.00011684     -0.00000000</v>
   <v>       0.00026039      0.00011020     -0.00000000</v>
   <v>       0.00785445      0.00000000      0.00987242</v>
   <v>       0.00759292      0.00000000     -0.00950227</v>
   <v>       0.00026102      0.00000000      0.00011684</v>
   <v>       0.00026039      0.00000000     -0.00011020</v>
   <v>       0.00785445     -0.00000000     -0.00987242</v>
   <v>       0.00759292      0.00000000      0.00950227</v>
   <v>       0.00026102     -0.00000000     -0.00011684</v>
   <v>       0.00026039      0.00000000      0.00011020</v>
   <v>      -0.00336573     -0.00000685     -0.00000685</v>
   <v>       0.00076981      0.00000437      0.00000437</v>
   <v>      -0.00336573      0.00000685     -0.00000685</v>
   <v>       0.00076981     -0.00000437      0.00000437</v>
   <v>      -0.00336573     -0.00000685      0.00000685</v>
   <v>       0.00076981      0.00000437     -0.00000437</v>
   <v>      -0.00336573      0.00000685      0.00000685</v>
   <v>       0.00076981     -0.00000437     -0.00000437</v>
  </varray>
  <varray name="stress" >
   <v>       0.50865598      0.00000000      0.00000000</v>
   <v>       0.00000000      0.50790773      0.00000000</v>
   <v>       0.00000000      0.00000000      0.50790773</v>
  </varray>
  <energy>
   <i name="e_fr_energy">   -104.68332112</i>
   <i name="e_wo_entrp">   -104.68307651</i>
   <i name="e_0_energy">     -0.00048922</i>
  </energy>
  <eigenvalues>
   <array>
    <dimension dim="1">band</dimension>
    <dimension dim="2">kpoint</dimension>
    <dimension dim="3">spin</dimension>
    <field>eigene</field>
    <field>occ</field>
    <set>
     <set comment="spin 1">
      <set comment="kpoint 1">
       <r>  -4.2412  1.0000</r>
       <r>  -1.9439  1.0000</r>
       <r>  -1.9405  1.0000</r>
       <r>  -1.9405  1.0000</r>
       <r>  -1.9405  1.0000</r>
       <r>  -1.9405  1.0000</r>
       <r>  -1.9372  1.0000</r>
       <r>  -1.8293  1.0000</r>
       <r>  -1.8293  1.0000</r>
       <r>  -1.8293  1.0000</r>
       <r>  -1.8293  1.0000</r>
       <r>  -1.5828  1.0000</r>
       <r>  -1.5828  1.0000</r>
       <r>  -1.5828  1.0000</r>
       <r>  -1.3081  1.0000</r>
       <r>  -1.3081  1.0000</r>
       <r>  -1.3081  1.0000</r>
       <r>  -0.6989  1.0000</r>
       <r>  -0.6974  1.0000</r>
       <r>  -0.6974  1.0000</r>
       <r>  -0.6956  1.0000</r>
       <r>  -0.6954  1.0000</r>
       <r>  -0.6954  1.0000</r>
       <r>  -0.6954  1.0000</r>
       <r>  -0.6954  1.0000</r>
       <r>  -0.6952  1.0000</r>
       <r>  -0.6934  1.0000</r>
       <r>  -0.6934  1.0000</r>
       <r>  -0.6919  1.0000</r>
       <r>  -0.5754  1.0000</r>
       <r>  -0.5732  1.0000</r>
       <r>  -0.5732  1.0000</r>
       <r>  -0.5732  1.0000</r>
       <r>  -0.5732  1.0000</r>
       <r>  -0.5710  1.0000</r>
       <r>  -0.4595  1.0000</r>
       <r>  -0.4573  1.0000</r>
       <r>  -0.4573  1.0000</r>
       <r>  -0.4573  1.0000</r>
       <r>  -0.4573  1.0000</r>
       <r>  -0.4551  1.0000</r>
       <r>   0.0783  1.0000</r>
       <r>   0.0811  1.0000</r>
       <r>   0.0811  1.0000</r>
       <r>   0.0823  1.0000</r>
       <r>   0.0824  1.0000</r>
       <r>   0.0824  1.0000</r>
       <r>   0.0824  1.0000</r>
       <r>   0.0824  1.0000</r>
       <r>   0.0824  1.0000</r>
       <r>   0.0835  1.0000</r>
       <r>   0.0835  1.0000</r>
       <r>   0.0862  1.0000</r>
       <r>   0.1440  1.0000</r>
       <r>   0.1440  1.0000</r>
       <r>   0.1464  1.0000</r>
       <r>   0.1464  1.0000</r>
       <r>   0.1464  1.0000</r>
       <r>   0.1464  1.0000</r>
       <r>   0.1464  1.0000</r>
       <r>   0.1465  1.0000</r>
       <r>   0.1465  1.0000</r>
       <r>   0.1467  1.0000</r>
       <r>   0.1489  1.0000</r>
       <r>   0.1490  1.0000</r>
       <r>   0.4025  1.0000</r>
       <r>   0.4063  1.0000</r>
       <r>   0.4064  1.0000</r>
       <r>   0.4064  1.0000</r>
       <r>   0.4066  1.0000</r>
       <r>   0.4066  1.0000</r>
       <r>   0.4066  1.0000</r>
       <r>   0.4066  1.0000</r>
       <r>   0.4069  1.0000</r>
       <r>   0.4069  1.0000</r>
       <r>   0.4069  1.0000</r>
       <r>   0.4107  1.0000</r>
       <r>   0.5146  1.0000</r>
       <r>   0.5146  1.0000</r>
       <r>   0.5146  1.0000</r>
       <r>   0.5146  1.0000</r>
       <r>   0.5147  1.0000</r>
       <r>   0.5147  1.0000</r>
       <r>   0.5147  1.0000</r>
       <r>   0.5147  1.0000</r>
       <r>   0.5434  1.0000</r>
       <r>   0.5434  1.0000</r>
       <r>   0.5434  1.0000</r>
       <r>   1.1987  1.0000</r>
       <r>   1.2009  1.0000</r>
       <r>   1.2010  1.0000</r>
       <r>   1.2010  1.0000</r>
       <r>   1.2010  1.0000</r>
       <r>   1.2032  1.0000</r>
       <r>   1.3766  1.0000</r>
       <r>   1.3775  1.0000</r>
       <r>   1.3787  1.0000</r>
       <r>   1.3787  1.0000</r>
       <r>   1.3793  1.0000</r>
       <r>   1.3793  1.0000</r>
       <r>   1.3793  1.0000</r>
       <r>   1.3793  1.0000</r>
       <r>   1.3800  1.0000</r>
       <r>   1.3800  1.0000</r>
       <r>   1.3813  1.0000</r>
       <r>   1.3819  1.0000</r>
       <r>   1.6551  1.0000</r>
       <r>   1.6551  1.0000</r>
       <r>   1.6578  1.0000</r>
       <r>   1.6578  1.0000</r>
       <r>   1.6580  1.0000</r>
       <r>   1.6580  1.0000</r>
       <r>   1.6580  1.0000</r>
       <r>   1.6580  1.0000</r>
       <r>   1.6582  1.0000</r>
       <r>   1.6582  1.0000</r>
       <r>   1.6608  1.0000</r>
       <r>   1.6608  1.0000</r>
       <r>   1.7908  1.0000</r>
       <r>   1.7927  1.0000</r>
       <r>   1.7927  1.0000</r>
       <r>   1.7927  1.0000</r>
       <r>   1.7927  1.0000</r>
       <r>   1.7945  1.0000</r>
       <r>   1.8986  1.0000</r>
       <r>   1.8986  1.0000</r>
       <r>   1.8989  1.0000</r>
       <r>   1.9002  1.0000</r>
       <r>   1.9012  1.0000</r>
       <r>   1.9016  1.0000</r>
       <r>   1.9017  1.0000</r>
       <r>   1.9017  1.0000</r>
       <r>   1.9017  1.0000</r>
       <r>   1.9018  1.0000</r>
       <r>   1.9022  1.0000</r>
       <r>   1.9030  1.0000</r>
       <r>   1.9050  1.0000</r>
       <r>   1.9050  1.0000</r>
       <r>   2.3950  1.0000</r>
       <r>   2.3964  1.0000</r>
       <r>   2.3964  1.0000</r>
       <r>   2.3964  1.0000</r>
       <r>   2.3964  1.0000</r>
       <r>   2.3977  1.0000</r>
       <r>   2.9325  1.0000</r>
       <r>   2.9325  1.0000</r>
       <r>   2.9325  1.0000</r>
       <r>   2.9732  1.0000</r>
       <r>   2.9732  1.0000</r>
       <r>   2.9732  1.0000</r>
       <r>   2.9732  1.0000</r>
       <r>   2.9732  1.0000</r>
       <r>   2.9732  1.0000</r>
       <r>   2.9732  1.0000</r>
       <r>   2.9733  1.0000</r>
       <r>   3.2591  1.0000</r>
       <r>   3.2594  1.0000</r>
       <r>   3.2594  1.0000</r>
       <r>   3.2594  1.0000</r>
       <r>   3.2594  1.0000</r>
       <r>   3.2594  1.0000</r>
       <r>   3.2610  1.0000</r>
       <r>   3.2611  1.0000</r>
       <r>   3.2611  1.0000</r>
       <r>   3.2611  1.0000</r>
       <r>   3.2611  1.0000</r>
       <r>   3.2614  1.0000</r>
       <r>   4.2772  1.0000</r>
       <r>   4.2773  1.0000</r>
       <r>   4.2773  1.0000</r>
       <r>   4.2773  1.0000</r>
       <r>   4.5879  1.0000</r>
       <r>   4.5885  1.0000</r>
       <r>   4.5885  1.0000</r>
       <r>   4.5892  1.0000</r>
       <r>   4.5897  1.0000</r>
       <r>   4.5897  1.0000</r>
       <r>   4.5897  1.0000</r>
       <r>   4.5897  1.0000</r>
       <r>   4.5902  1.0000</r>
       <r>   4.5910  1.0000</r>
       <r>   4.5910  1.0000</r>
       <r>   4.5916  1.0000</r>
       <r>   6.1591  0.0000</r>
       <r>   6.1591  0.0000</r>
       <r>   6.1591  0.0000</r>
       <r>   7.7151  0.0000</r>
       <r>   7.7151  0.0000</r>
       <r>   7.7151  0.0000</r>
       <r>   7.7152  0.0000</r>
       <r>   9.4342  0.0000</r>
       <r>   9.4344  0.0000</r>
       <r>   9.4345  0.0000</r>
       <r>   9.4345  0.0000</r>
       <r>   9.4345  0.0000</r>
       <r>   9.4347  0.0000</r>
       <r>  10.2751  0.0000</r>
       <r>  10.2752  0.0000</r>
       <r>  10.2752  0.0000</r>
       <r>  11.0659  0.0000</r>
       <r>  11.0659  0.0000</r>
       <r>  11.0690  0.0000</r>
       <r>  11.0690  0.0000</r>
       <r>  11.0695  0.0000</r>
       <r>  11.0695  0.0000</r>
       <r>  11.0695  0.0000</r>
       <r>  11.0696  0.0000</r>
       <r>  11.0700  0.0000</r>
       <r>  11.0700  0.0000</r>
       <r>  11.0732  0.0000</r>
       <r>  11.0732  0.0000</r>
       <r>  13.2186  0.0000</r>
       <r>  13.2193  0.0000</r>
       <r>  13.2199  0.0000</r>
       <r>  13.2207  0.0000</r>
       <r>  13.2217  0.0000</r>
      </set>
      <set comment="kpoint 2">
       <r>  -4.2220  1.0000</r>
       <r>  -2.2126  1.0000</r>
       <r>  -1.9267  1.0000</r>
       <r>  -1.9266  1.0000</r>
       <r>  -1.9266  1.0000</r>
       <r>  -1.9266  1.0000</r>
       <r>  -1.8187  1.0000</r>
       <r>  -1.8187  1.0000</r>
       <r>  -1.8187  1.0000</r>
       <r>  -1.8187  1.0000</r>
       <r>  -1.7091  1.0000</r>
       <r>  -1.5764  1.0000</r>
       <r>  -1.5702  1.0000</r>
       <r>  -1.5702  1.0000</r>
       <r>  -1.3013  1.0000</r>
       <r>  -1.2979  1.0000</r>
       <r>  -1.2979  1.0000</r>
       <r>  -0.7970  1.0000</r>
       <r>  -0.7970  1.0000</r>
       <r>  -0.7970  1.0000</r>
       <r>  -0.7969  1.0000</r>
       <r>  -0.7503  1.0000</r>
       <r>  -0.7503  1.0000</r>
       <r>  -0.7502  1.0000</r>
       <r>  -0.7502  1.0000</r>
       <r>  -0.6079  1.0000</r>
       <r>  -0.6079  1.0000</r>
       <r>  -0.6079  1.0000</r>
       <r>  -0.6079  1.0000</r>
       <r>  -0.5992  1.0000</r>
       <r>  -0.5991  1.0000</r>
       <r>  -0.5757  1.0000</r>
       <r>  -0.5642  1.0000</r>
       <r>  -0.5642  1.0000</r>
       <r>  -0.5642  1.0000</r>
       <r>  -0.5641  1.0000</r>
       <r>  -0.4515  1.0000</r>
       <r>  -0.4515  1.0000</r>
       <r>  -0.4515  1.0000</r>
       <r>  -0.4515  1.0000</r>
       <r>  -0.3365  1.0000</r>
       <r>  -0.0821  1.0000</r>
       <r>  -0.0821  1.0000</r>
       <r>   0.0363  1.0000</r>
       <r>   0.0364  1.0000</r>
       <r>   0.0364  1.0000</r>
       <r>   0.0365  1.0000</r>
       <r>   0.1178  1.0000</r>
       <r>   0.1184  1.0000</r>
       <r>   0.1184  1.0000</r>
       <r>   0.1184  1.0000</r>
       <r>   0.1276  1.0000</r>
       <r>   0.1277  1.0000</r>
       <r>   0.1277  1.0000</r>
       <r>   0.1280  1.0000</r>
       <r>   0.1358  1.0000</r>
       <r>   0.1359  1.0000</r>
       <r>   0.1359  1.0000</r>
       <r>   0.1359  1.0000</r>
       <r>   0.1475  1.0000</r>
       <r>   0.1475  1.0000</r>
       <r>   0.1475  1.0000</r>
       <r>   0.1479  1.0000</r>
       <r>   0.3466  1.0000</r>
       <r>   0.3467  1.0000</r>
       <r>   0.3467  1.0000</r>
       <r>   0.3467  1.0000</r>
       <r>   0.3927  1.0000</r>
       <r>   0.3927  1.0000</r>
       <r>   0.4341  1.0000</r>
       <r>   0.4362  1.0000</r>
       <r>   0.4362  1.0000</r>
       <r>   0.4363  1.0000</r>
       <r>   0.4372  1.0000</r>
       <r>   0.4372  1.0000</r>
       <r>   0.4372  1.0000</r>
       <r>   0.4394  1.0000</r>
       <r>   0.5103  1.0000</r>
       <r>   0.5103  1.0000</r>
       <r>   0.5103  1.0000</r>
       <r>   0.5104  1.0000</r>
       <r>   0.5231  1.0000</r>
       <r>   0.5231  1.0000</r>
       <r>   0.5231  1.0000</r>
       <r>   0.5231  1.0000</r>
       <r>   0.5340  1.0000</r>
       <r>   0.5517  1.0000</r>
       <r>   0.5517  1.0000</r>
       <r>   1.1502  1.0000</r>
       <r>   1.1502  1.0000</r>
       <r>   1.1502  1.0000</r>
       <r>   1.1502  1.0000</r>
       <r>   1.1842  1.0000</r>
       <r>   1.2951  1.0000</r>
       <r>   1.3385  1.0000</r>
       <r>   1.3386  1.0000</r>
       <r>   1.3386  1.0000</r>
       <r>   1.3386  1.0000</r>
       <r>   1.3791  1.0000</r>
       <r>   1.3791  1.0000</r>
       <r>   1.3791  1.0000</r>
       <r>   1.3792  1.0000</r>
       <r>   1.4268  1.0000</r>
       <r>   1.4268  1.0000</r>
       <r>   1.4269  1.0000</r>
       <r>   1.4270  1.0000</r>
       <r>   1.4930  1.0000</r>
       <r>   1.4930  1.0000</r>
       <r>   1.6574  1.0000</r>
       <r>   1.6574  1.0000</r>
       <r>   1.6575  1.0000</r>
       <r>   1.6575  1.0000</r>
       <r>   1.7005  1.0000</r>
       <r>   1.7005  1.0000</r>
       <r>   1.7005  1.0000</r>
       <r>   1.7005  1.0000</r>
       <r>   1.7968  1.0000</r>
       <r>   1.7969  1.0000</r>
       <r>   1.7969  1.0000</r>
       <r>   1.7970  1.0000</r>
       <r>   1.8215  1.0000</r>
       <r>   1.8215  1.0000</r>
       <r>   1.8215  1.0000</r>
       <r>   1.8216  1.0000</r>
       <r>   1.8218  1.0000</r>
       <r>   1.8218  1.0000</r>
       <r>   1.8310  1.0000</r>
       <r>   1.8310  1.0000</r>
       <r>   1.8902  1.0000</r>
       <r>   1.9042  1.0000</r>
       <r>   1.9459  1.0000</r>
       <r>   1.9459  1.0000</r>
       <r>   1.9459  1.0000</r>
       <r>   1.9460  1.0000</r>
       <r>   2.0009  1.0000</r>
       <r>   2.0009  1.0000</r>
       <r>   2.0010  1.0000</r>
       <r>   2.0010  1.0000</r>
       <r>   2.3295  1.0000</r>
       <r>   2.4087  1.0000</r>
       <r>   2.4087  1.0000</r>
       <r>   2.4087  1.0000</r>
       <r>   2.4087  1.0000</r>
       <r>   2.4639  1.0000</r>
       <r>   2.9051  1.0000</r>
       <r>   2.9051  1.0000</r>
       <r>   2.9051  1.0000</r>
       <r>   2.9051  1.0000</r>
       <r>   2.9184  1.0000</r>
       <r>   2.9184  1.0000</r>
       <r>   2.9277  1.0000</r>
       <r>   2.9611  1.0000</r>
       <r>   2.9611  1.0000</r>
       <r>   2.9611  1.0000</r>
       <r>   2.9612  1.0000</r>
       <r>   3.1939  1.0000</r>
       <r>   3.1939  1.0000</r>
       <r>   3.2419  1.0000</r>
       <r>   3.2419  1.0000</r>
       <r>   3.2420  1.0000</r>
       <r>   3.2420  1.0000</r>
       <r>   3.2421  1.0000</r>
       <r>   3.2421  1.0000</r>
       <r>   3.2591  1.0000</r>
       <r>   3.2594  1.0000</r>
       <r>   3.2610  1.0000</r>
       <r>   3.2613  1.0000</r>
       <r>   4.3029  1.0000</r>
       <r>   4.3029  1.0000</r>
       <r>   4.3030  1.0000</r>
       <r>   4.3032  1.0000</r>
       <r>   4.3081  1.0000</r>
       <r>   4.3082  1.0000</r>
       <r>   4.3084  1.0000</r>
       <r>   4.3084  1.0000</r>
       <r>   4.5892  1.0000</r>
       <r>   4.5892  1.0000</r>
       <r>   4.5892  1.0000</r>
       <r>   4.5892  1.0000</r>
       <r>   4.8920  1.0000</r>
       <r>   4.8920  1.0000</r>
       <r>   4.8920  1.0000</r>
       <r>   4.8921  1.0000</r>
       <r>   5.9926  0.0000</r>
       <r>   6.2384  0.0000</r>
       <r>   6.2384  0.0000</r>
       <r>   7.7822  0.0000</r>
       <r>   7.7822  0.0000</r>
       <r>   7.7822  0.0000</r>
       <r>   7.7822  0.0000</r>
       <r>   9.2820  0.0000</r>
       <r>   9.2820  0.0000</r>
       <r>   9.2820  0.0000</r>
       <r>   9.2820  0.0000</r>
       <r>   9.4470  0.0000</r>
       <r>   9.4470  0.0000</r>
       <r>  10.2591  0.0000</r>
       <r>  10.2592  0.0000</r>
       <r>  10.4750  0.0000</r>
       <r>  10.5638  0.0000</r>
       <r>  10.5638  0.0000</r>
       <r>  11.1050  0.0000</r>
       <r>  11.1050  0.0000</r>
       <r>  11.1050  0.0000</r>
       <r>  11.1050  0.0000</r>
       <r>  11.1345  0.0000</r>
       <r>  11.1345  0.0000</r>
       <r>  11.1345  0.0000</r>
       <r>  11.1346  0.0000</r>
       <r>  11.5673  0.0000</r>
       <r>  11.5673  0.0000</r>
       <r>  12.9008  0.0000</r>
       <r>  12.9010  0.0000</r>
       <r>  12.9028  0.0000</r>
       <r>  12.9043  0.0000</r>
       <r>  12.9058  0.0000</r>
      </set>
      <set comment="kpoint 3">
       <r>  -4.1645  1.0000</r>
       <r>  -2.5035  1.0000</r>
       <r>  -1.8853  1.0000</r>
       <r>  -1.8853  1.0000</r>
       <r>  -1.8853  1.0000</r>
       <r>  -1.8853  1.0000</r>
       <r>  -1.7869  1.0000</r>
       <r>  -1.7869  1.0000</r>
       <r>  -1.7869  1.0000</r>
       <r>  -1.7869  1.0000</r>
       <r>  -1.5574  1.0000</r>
       <r>  -1.5374  1.0000</r>
       <r>  -1.5328  1.0000</r>
       <r>  -1.5326  1.0000</r>
       <r>  -1.2811  1.0000</r>
       <r>  -1.2671  1.0000</r>
       <r>  -1.2671  1.0000</r>
       <r>  -0.9150  1.0000</r>
       <r>  -0.9150  1.0000</r>
       <r>  -0.9149  1.0000</r>
       <r>  -0.9149  1.0000</r>
       <r>  -0.8784  1.0000</r>
       <r>  -0.8784  1.0000</r>
       <r>  -0.8783  1.0000</r>
       <r>  -0.8783  1.0000</r>
       <r>  -0.6896  1.0000</r>
       <r>  -0.6718  1.0000</r>
       <r>  -0.6717  1.0000</r>
       <r>  -0.5377  1.0000</r>
       <r>  -0.5376  1.0000</r>
       <r>  -0.5376  1.0000</r>
       <r>  -0.5376  1.0000</r>
       <r>  -0.5305  1.0000</r>
       <r>  -0.5305  1.0000</r>
       <r>  -0.5305  1.0000</r>
       <r>  -0.5304  1.0000</r>
       <r>  -0.4343  1.0000</r>
       <r>  -0.4343  1.0000</r>
       <r>  -0.4343  1.0000</r>
       <r>  -0.4343  1.0000</r>
       <r>  -0.2922  1.0000</r>
       <r>  -0.2922  1.0000</r>
       <r>  -0.2151  1.0000</r>
       <r>  -0.0179  1.0000</r>
       <r>  -0.0178  1.0000</r>
       <r>  -0.0178  1.0000</r>
       <r>  -0.0178  1.0000</r>
       <r>   0.1057  1.0000</r>
       <r>   0.1057  1.0000</r>
       <r>   0.1057  1.0000</r>
       <r>   0.1058  1.0000</r>
       <r>   0.1434  1.0000</r>
       <r>   0.1443  1.0000</r>
       <r>   0.1443  1.0000</r>
       <r>   0.1443  1.0000</r>
       <r>   0.1504  1.0000</r>
       <r>   0.1505  1.0000</r>
       <r>   0.1505  1.0000</r>
       <r>   0.1513  1.0000</r>
       <r>   0.2086  1.0000</r>
       <r>   0.2087  1.0000</r>
       <r>   0.2087  1.0000</r>
       <r>   0.2087  1.0000</r>
       <r>   0.2607  1.0000</r>
       <r>   0.2607  1.0000</r>
       <r>   0.2607  1.0000</r>
       <r>   0.2607  1.0000</r>
       <r>   0.4465  1.0000</r>
       <r>   0.4465  1.0000</r>
       <r>   0.4466  1.0000</r>
       <r>   0.4466  1.0000</r>
       <r>   0.4976  1.0000</r>
       <r>   0.4976  1.0000</r>
       <r>   0.4976  1.0000</r>
       <r>   0.4977  1.0000</r>
       <r>   0.5061  1.0000</r>
       <r>   0.5468  1.0000</r>
       <r>   0.5468  1.0000</r>
       <r>   0.5469  1.0000</r>
       <r>   0.5470  1.0000</r>
       <r>   0.5484  1.0000</r>
       <r>   0.5485  1.0000</r>
       <r>   0.5485  1.0000</r>
       <r>   0.5485  1.0000</r>
       <r>   0.5766  1.0000</r>
       <r>   0.5766  1.0000</r>
       <r>   0.6557  1.0000</r>
       <r>   0.6557  1.0000</r>
       <r>   1.0392  1.0000</r>
       <r>   1.0392  1.0000</r>
       <r>   1.0392  1.0000</r>
       <r>   1.0392  1.0000</r>
       <r>   1.2213  1.0000</r>
       <r>   1.2439  1.0000</r>
       <r>   1.2440  1.0000</r>
       <r>   1.2440  1.0000</r>
       <r>   1.2440  1.0000</r>
       <r>   1.3375  1.0000</r>
       <r>   1.3375  1.0000</r>
       <r>   1.4238  1.0000</r>
       <r>   1.4239  1.0000</r>
       <r>   1.4239  1.0000</r>
       <r>   1.4239  1.0000</r>
       <r>   1.4872  1.0000</r>
       <r>   1.5072  1.0000</r>
       <r>   1.5072  1.0000</r>
       <r>   1.5073  1.0000</r>
       <r>   1.5074  1.0000</r>
       <r>   1.6561  1.0000</r>
       <r>   1.6561  1.0000</r>
       <r>   1.6561  1.0000</r>
       <r>   1.6561  1.0000</r>
       <r>   1.7606  1.0000</r>
       <r>   1.7606  1.0000</r>
       <r>   1.7607  1.0000</r>
       <r>   1.7607  1.0000</r>
       <r>   1.7796  1.0000</r>
       <r>   1.7797  1.0000</r>
       <r>   1.7797  1.0000</r>
       <r>   1.7797  1.0000</r>
       <r>   1.8080  1.0000</r>
       <r>   1.8080  1.0000</r>
       <r>   1.8080  1.0000</r>
       <r>   1.8080  1.0000</r>
       <r>   1.8606  1.0000</r>
       <r>   1.9024  1.0000</r>
       <r>   1.9025  1.0000</r>
       <r>   1.9166  1.0000</r>
       <r>   2.0084  1.0000</r>
       <r>   2.0084  1.0000</r>
       <r>   2.0505  1.0000</r>
       <r>   2.0506  1.0000</r>
       <r>   2.0506  1.0000</r>
       <r>   2.0506  1.0000</r>
       <r>   2.1184  1.0000</r>
       <r>   2.1184  1.0000</r>
       <r>   2.1184  1.0000</r>
       <r>   2.1184  1.0000</r>
       <r>   2.2644  1.0000</r>
       <r>   2.4532  1.0000</r>
       <r>   2.4532  1.0000</r>
       <r>   2.4532  1.0000</r>
       <r>   2.4532  1.0000</r>
       <r>   2.5310  1.0000</r>
       <r>   2.7239  1.0000</r>
       <r>   2.7239  1.0000</r>
       <r>   2.7239  1.0000</r>
       <r>   2.7239  1.0000</r>
       <r>   2.8763  1.0000</r>
       <r>   2.8763  1.0000</r>
       <r>   2.9135  1.0000</r>
       <r>   2.9252  1.0000</r>
       <r>   2.9252  1.0000</r>
       <r>   2.9252  1.0000</r>
       <r>   2.9252  1.0000</r>
       <r>   3.0160  1.0000</r>
       <r>   3.0160  1.0000</r>
       <r>   3.1864  1.0000</r>
       <r>   3.1864  1.0000</r>
       <r>   3.1864  1.0000</r>
       <r>   3.1864  1.0000</r>
       <r>   3.1905  1.0000</r>
       <r>   3.1905  1.0000</r>
       <r>   3.2592  1.0000</r>
       <r>   3.2595  1.0000</r>
       <r>   3.2609  1.0000</r>
       <r>   3.2613  1.0000</r>
       <r>   4.0418  1.0000</r>
       <r>   4.0418  1.0000</r>
       <r>   4.0418  1.0000</r>
       <r>   4.0418  1.0000</r>
       <r>   4.3630  1.0000</r>
       <r>   4.3630  1.0000</r>
       <r>   4.3631  1.0000</r>
       <r>   4.3631  1.0000</r>
       <r>   4.5875  1.0000</r>
       <r>   4.5875  1.0000</r>
       <r>   4.5875  1.0000</r>
       <r>   4.5875  1.0000</r>
       <r>   5.2210  0.0000</r>
       <r>   5.2210  0.0000</r>
       <r>   5.2210  0.0000</r>
       <r>   5.2210  0.0000</r>
       <r>   5.5677  0.0000</r>
       <r>   6.4577  0.0000</r>
       <r>   6.4577  0.0000</r>
       <r>   7.9782  0.0000</r>
       <r>   7.9782  0.0000</r>
       <r>   7.9782  0.0000</r>
       <r>   7.9782  0.0000</r>
       <r>   8.9062  0.0000</r>
       <r>   8.9062  0.0000</r>
       <r>   8.9062  0.0000</r>
       <r>   8.9062  0.0000</r>
       <r>   9.4840  0.0000</r>
       <r>   9.4840  0.0000</r>
       <r>  10.0541  0.0000</r>
       <r>  10.0541  0.0000</r>
       <r>  10.2124  0.0000</r>
       <r>  10.2124  0.0000</r>
       <r>  11.0003  0.0000</r>
       <r>  11.2099  0.0000</r>
       <r>  11.2099  0.0000</r>
       <r>  11.2099  0.0000</r>
       <r>  11.2099  0.0000</r>
       <r>  11.2696  0.0000</r>
       <r>  11.2696  0.0000</r>
       <r>  11.2697  0.0000</r>
       <r>  11.2697  0.0000</r>
       <r>  12.0526  0.0000</r>
       <r>  12.0526  0.0000</r>
       <r>  12.2953  0.0000</r>
       <r>  12.2953  0.0000</r>
       <r>  12.2954  0.0000</r>
       <r>  12.2954  0.0000</r>
       <r>  12.6184  0.0000</r>
      </set>
      <set comment="kpoint 4">
       <r>  -4.0691  1.0000</r>
       <r>  -2.7954  1.0000</r>
       <r>  -1.8176  1.0000</r>
       <r>  -1.8176  1.0000</r>
       <r>  -1.8176  1.0000</r>
       <r>  -1.8176  1.0000</r>
       <r>  -1.7343  1.0000</r>
       <r>  -1.7343  1.0000</r>
       <r>  -1.7343  1.0000</r>
       <r>  -1.7343  1.0000</r>
       <r>  -1.5276  1.0000</r>
       <r>  -1.4715  1.0000</r>
       <r>  -1.4714  1.0000</r>
       <r>  -1.4324  1.0000</r>
       <r>  -1.2475  1.0000</r>
       <r>  -1.2158  1.0000</r>
       <r>  -1.2158  1.0000</r>
       <r>  -1.0484  1.0000</r>
       <r>  -1.0484  1.0000</r>
       <r>  -1.0484  1.0000</r>
       <r>  -1.0483  1.0000</r>
       <r>  -1.0310  1.0000</r>
       <r>  -1.0310  1.0000</r>
       <r>  -1.0309  1.0000</r>
       <r>  -1.0309  1.0000</r>
       <r>  -0.7976  1.0000</r>
       <r>  -0.7783  1.0000</r>
       <r>  -0.7783  1.0000</r>
       <r>  -0.4952  1.0000</r>
       <r>  -0.4952  1.0000</r>
       <r>  -0.4952  1.0000</r>
       <r>  -0.4951  1.0000</r>
       <r>  -0.4834  1.0000</r>
       <r>  -0.4834  1.0000</r>
       <r>  -0.4604  1.0000</r>
       <r>  -0.4604  1.0000</r>
       <r>  -0.4604  1.0000</r>
       <r>  -0.4604  1.0000</r>
       <r>  -0.4061  1.0000</r>
       <r>  -0.4060  1.0000</r>
       <r>  -0.4060  1.0000</r>
       <r>  -0.4060  1.0000</r>
       <r>  -0.0955  1.0000</r>
       <r>  -0.0781  1.0000</r>
       <r>  -0.0781  1.0000</r>
       <r>  -0.0781  1.0000</r>
       <r>  -0.0781  1.0000</r>
       <r>   0.0609  1.0000</r>
       <r>   0.0609  1.0000</r>
       <r>   0.0609  1.0000</r>
       <r>   0.0609  1.0000</r>
       <r>   0.1540  1.0000</r>
       <r>   0.1549  1.0000</r>
       <r>   0.1549  1.0000</r>
       <r>   0.1550  1.0000</r>
       <r>   0.1606  1.0000</r>
       <r>   0.1606  1.0000</r>
       <r>   0.1608  1.0000</r>
       <r>   0.1608  1.0000</r>
       <r>   0.1609  1.0000</r>
       <r>   0.1612  1.0000</r>
       <r>   0.1612  1.0000</r>
       <r>   0.1619  1.0000</r>
       <r>   0.2678  1.0000</r>
       <r>   0.2678  1.0000</r>
       <r>   0.2678  1.0000</r>
       <r>   0.2678  1.0000</r>
       <r>   0.4564  1.0000</r>
       <r>   0.4565  1.0000</r>
       <r>   0.4565  1.0000</r>
       <r>   0.4565  1.0000</r>
       <r>   0.4604  1.0000</r>
       <r>   0.4774  1.0000</r>
       <r>   0.4774  1.0000</r>
       <r>   0.4774  1.0000</r>
       <r>   0.4775  1.0000</r>
       <r>   0.5903  1.0000</r>
       <r>   0.5903  1.0000</r>
       <r>   0.5903  1.0000</r>
       <r>   0.5904  1.0000</r>
       <r>   0.6180  1.0000</r>
       <r>   0.6180  1.0000</r>
       <r>   0.7433  1.0000</r>
       <r>   0.7433  1.0000</r>
       <r>   0.7433  1.0000</r>
       <r>   0.7433  1.0000</r>
       <r>   0.9137  1.0000</r>
       <r>   0.9137  1.0000</r>
       <r>   0.9137  1.0000</r>
       <r>   0.9137  1.0000</r>
       <r>   0.9344  1.0000</r>
       <r>   0.9344  1.0000</r>
       <r>   1.1308  1.0000</r>
       <r>   1.1309  1.0000</r>
       <r>   1.1309  1.0000</r>
       <r>   1.1309  1.0000</r>
       <r>   1.1931  1.0000</r>
       <r>   1.1931  1.0000</r>
       <r>   1.2923  1.0000</r>
       <r>   1.4983  1.0000</r>
       <r>   1.4983  1.0000</r>
       <r>   1.4983  1.0000</r>
       <r>   1.4983  1.0000</r>
       <r>   1.5993  1.0000</r>
       <r>   1.5993  1.0000</r>
       <r>   1.5993  1.0000</r>
       <r>   1.5993  1.0000</r>
       <r>   1.6543  1.0000</r>
       <r>   1.6543  1.0000</r>
       <r>   1.6543  1.0000</r>
       <r>   1.6543  1.0000</r>
       <r>   1.7165  1.0000</r>
       <r>   1.7165  1.0000</r>
       <r>   1.7166  1.0000</r>
       <r>   1.7166  1.0000</r>
       <r>   1.7856  1.0000</r>
       <r>   1.8123  1.0000</r>
       <r>   1.8204  1.0000</r>
       <r>   1.8205  1.0000</r>
       <r>   1.8205  1.0000</r>
       <r>   1.8207  1.0000</r>
       <r>   1.8352  1.0000</r>
       <r>   1.8352  1.0000</r>
       <r>   1.8352  1.0000</r>
       <r>   1.8352  1.0000</r>
       <r>   1.9367  1.0000</r>
       <r>   2.0219  1.0000</r>
       <r>   2.0219  1.0000</r>
       <r>   2.1797  1.0000</r>
       <r>   2.1798  1.0000</r>
       <r>   2.1798  1.0000</r>
       <r>   2.1798  1.0000</r>
       <r>   2.1887  1.0000</r>
       <r>   2.1887  1.0000</r>
       <r>   2.2023  1.0000</r>
       <r>   2.2516  1.0000</r>
       <r>   2.2516  1.0000</r>
       <r>   2.2516  1.0000</r>
       <r>   2.2516  1.0000</r>
       <r>   2.4722  1.0000</r>
       <r>   2.4722  1.0000</r>
       <r>   2.4722  1.0000</r>
       <r>   2.4723  1.0000</r>
       <r>   2.5449  1.0000</r>
       <r>   2.5449  1.0000</r>
       <r>   2.5449  1.0000</r>
       <r>   2.5449  1.0000</r>
       <r>   2.5964  1.0000</r>
       <r>   2.7639  1.0000</r>
       <r>   2.7639  1.0000</r>
       <r>   2.8071  1.0000</r>
       <r>   2.8071  1.0000</r>
       <r>   2.8665  1.0000</r>
       <r>   2.8665  1.0000</r>
       <r>   2.8665  1.0000</r>
       <r>   2.8666  1.0000</r>
       <r>   2.8901  1.0000</r>
       <r>   3.0982  1.0000</r>
       <r>   3.0982  1.0000</r>
       <r>   3.0982  1.0000</r>
       <r>   3.0982  1.0000</r>
       <r>   3.1074  1.0000</r>
       <r>   3.1074  1.0000</r>
       <r>   3.2593  1.0000</r>
       <r>   3.2596  1.0000</r>
       <r>   3.2608  1.0000</r>
       <r>   3.2612  1.0000</r>
       <r>   3.7870  1.0000</r>
       <r>   3.7870  1.0000</r>
       <r>   3.7870  1.0000</r>
       <r>   3.7870  1.0000</r>
       <r>   4.4278  1.0000</r>
       <r>   4.4278  1.0000</r>
       <r>   4.4279  1.0000</r>
       <r>   4.4279  1.0000</r>
       <r>   4.5840  1.0000</r>
       <r>   4.5840  1.0000</r>
       <r>   4.5840  1.0000</r>
       <r>   4.5840  1.0000</r>
       <r>   5.0099  0.0000</r>
       <r>   5.5823  0.0000</r>
       <r>   5.5823  0.0000</r>
       <r>   5.5823  0.0000</r>
       <r>   5.5823  0.0000</r>
       <r>   6.7783  0.0000</r>
       <r>   6.7783  0.0000</r>
       <r>   8.2892  0.0000</r>
       <r>   8.2892  0.0000</r>
       <r>   8.2893  0.0000</r>
       <r>   8.2893  0.0000</r>
       <r>   8.4252  0.0000</r>
       <r>   8.4252  0.0000</r>
       <r>   8.4252  0.0000</r>
       <r>   8.4252  0.0000</r>
       <r>   9.5439  0.0000</r>
       <r>   9.5439  0.0000</r>
       <r>   9.5447  0.0000</r>
       <r>   9.5447  0.0000</r>
       <r>  10.1390  0.0000</r>
       <r>  10.1390  0.0000</r>
       <r>  11.3802  0.0000</r>
       <r>  11.3802  0.0000</r>
       <r>  11.3802  0.0000</r>
       <r>  11.3802  0.0000</r>
       <r>  11.4089  0.0000</r>
       <r>  11.4089  0.0000</r>
       <r>  11.4089  0.0000</r>
       <r>  11.4089  0.0000</r>
       <r>  11.6298  0.0000</r>
       <r>  11.6299  0.0000</r>
       <r>  11.6299  0.0000</r>
       <r>  11.6299  0.0000</r>
       <r>  11.7269  0.0000</r>
       <r>  12.3713  0.0000</r>
       <r>  12.3714  0.0000</r>
       <r>  12.3715  0.0000</r>
      </set>
      <set comment="kpoint 5">
       <r>  -3.9368  1.0000</r>
       <r>  -3.0754  1.0000</r>
       <r>  -1.7256  1.0000</r>
       <r>  -1.7255  1.0000</r>
       <r>  -1.7255  1.0000</r>
       <r>  -1.7255  1.0000</r>
       <r>  -1.6612  1.0000</r>
       <r>  -1.6612  1.0000</r>
       <r>  -1.6612  1.0000</r>
       <r>  -1.6612  1.0000</r>
       <r>  -1.4898  1.0000</r>
       <r>  -1.3887  1.0000</r>
       <r>  -1.3879  1.0000</r>
       <r>  -1.3866  1.0000</r>
       <r>  -1.2010  1.0000</r>
       <r>  -1.1924  1.0000</r>
       <r>  -1.1924  1.0000</r>
       <r>  -1.1922  1.0000</r>
       <r>  -1.1922  1.0000</r>
       <r>  -1.1842  1.0000</r>
       <r>  -1.1842  1.0000</r>
       <r>  -1.1841  1.0000</r>
       <r>  -1.1841  1.0000</r>
       <r>  -1.1441  1.0000</r>
       <r>  -1.1441  1.0000</r>
       <r>  -0.9042  1.0000</r>
       <r>  -0.9042  1.0000</r>
       <r>  -0.8980  1.0000</r>
       <r>  -0.6552  1.0000</r>
       <r>  -0.6552  1.0000</r>
       <r>  -0.4408  1.0000</r>
       <r>  -0.4407  1.0000</r>
       <r>  -0.4407  1.0000</r>
       <r>  -0.4406  1.0000</r>
       <r>  -0.3983  1.0000</r>
       <r>  -0.3983  1.0000</r>
       <r>  -0.3983  1.0000</r>
       <r>  -0.3983  1.0000</r>
       <r>  -0.3676  1.0000</r>
       <r>  -0.3676  1.0000</r>
       <r>  -0.3676  1.0000</r>
       <r>  -0.3676  1.0000</r>
       <r>  -0.1415  1.0000</r>
       <r>  -0.1415  1.0000</r>
       <r>  -0.1415  1.0000</r>
       <r>  -0.1414  1.0000</r>
       <r>   0.0086  1.0000</r>
       <r>   0.0086  1.0000</r>
       <r>   0.0086  1.0000</r>
       <r>   0.0086  1.0000</r>
       <r>   0.0203  1.0000</r>
       <r>   0.0611  1.0000</r>
       <r>   0.0611  1.0000</r>
       <r>   0.0611  1.0000</r>
       <r>   0.0611  1.0000</r>
       <r>   0.1597  1.0000</r>
       <r>   0.1604  1.0000</r>
       <r>   0.1604  1.0000</r>
       <r>   0.1604  1.0000</r>
       <r>   0.1696  1.0000</r>
       <r>   0.1696  1.0000</r>
       <r>   0.1696  1.0000</r>
       <r>   0.1703  1.0000</r>
       <r>   0.3107  1.0000</r>
       <r>   0.3107  1.0000</r>
       <r>   0.3107  1.0000</r>
       <r>   0.3107  1.0000</r>
       <r>   0.3982  1.0000</r>
       <r>   0.4507  1.0000</r>
       <r>   0.4508  1.0000</r>
       <r>   0.4508  1.0000</r>
       <r>   0.4508  1.0000</r>
       <r>   0.4809  1.0000</r>
       <r>   0.4809  1.0000</r>
       <r>   0.4809  1.0000</r>
       <r>   0.4810  1.0000</r>
       <r>   0.6481  1.0000</r>
       <r>   0.6482  1.0000</r>
       <r>   0.6482  1.0000</r>
       <r>   0.6482  1.0000</r>
       <r>   0.6756  1.0000</r>
       <r>   0.6756  1.0000</r>
       <r>   0.7929  1.0000</r>
       <r>   0.7929  1.0000</r>
       <r>   0.7929  1.0000</r>
       <r>   0.7929  1.0000</r>
       <r>   0.9943  1.0000</r>
       <r>   0.9943  1.0000</r>
       <r>   0.9943  1.0000</r>
       <r>   0.9944  1.0000</r>
       <r>   1.0161  1.0000</r>
       <r>   1.0161  1.0000</r>
       <r>   1.0161  1.0000</r>
       <r>   1.0161  1.0000</r>
       <r>   1.0611  1.0000</r>
       <r>   1.0611  1.0000</r>
       <r>   1.2271  1.0000</r>
       <r>   1.2271  1.0000</r>
       <r>   1.3821  1.0000</r>
       <r>   1.5858  1.0000</r>
       <r>   1.5859  1.0000</r>
       <r>   1.5859  1.0000</r>
       <r>   1.5859  1.0000</r>
       <r>   1.6531  1.0000</r>
       <r>   1.6531  1.0000</r>
       <r>   1.6531  1.0000</r>
       <r>   1.6532  1.0000</r>
       <r>   1.6851  1.0000</r>
       <r>   1.6851  1.0000</r>
       <r>   1.6852  1.0000</r>
       <r>   1.6852  1.0000</r>
       <r>   1.6867  1.0000</r>
       <r>   1.6867  1.0000</r>
       <r>   1.6868  1.0000</r>
       <r>   1.6868  1.0000</r>
       <r>   1.7471  1.0000</r>
       <r>   1.8279  1.0000</r>
       <r>   1.8280  1.0000</r>
       <r>   1.8280  1.0000</r>
       <r>   1.8280  1.0000</r>
       <r>   1.8443  1.0000</r>
       <r>   1.8443  1.0000</r>
       <r>   1.8444  1.0000</r>
       <r>   1.8444  1.0000</r>
       <r>   1.9645  1.0000</r>
       <r>   2.1436  1.0000</r>
       <r>   2.1636  1.0000</r>
       <r>   2.1639  1.0000</r>
       <r>   2.1829  1.0000</r>
       <r>   2.1837  1.0000</r>
       <r>   2.1837  1.0000</r>
       <r>   2.1837  1.0000</r>
       <r>   2.1842  1.0000</r>
       <r>   2.3156  1.0000</r>
       <r>   2.3156  1.0000</r>
       <r>   2.3156  1.0000</r>
       <r>   2.3157  1.0000</r>
       <r>   2.3682  1.0000</r>
       <r>   2.3682  1.0000</r>
       <r>   2.3965  1.0000</r>
       <r>   2.3965  1.0000</r>
       <r>   2.3965  1.0000</r>
       <r>   2.3965  1.0000</r>
       <r>   2.4714  1.0000</r>
       <r>   2.4714  1.0000</r>
       <r>   2.6589  1.0000</r>
       <r>   2.6883  1.0000</r>
       <r>   2.6883  1.0000</r>
       <r>   2.6883  1.0000</r>
       <r>   2.6883  1.0000</r>
       <r>   2.7127  1.0000</r>
       <r>   2.7127  1.0000</r>
       <r>   2.7869  1.0000</r>
       <r>   2.7869  1.0000</r>
       <r>   2.7869  1.0000</r>
       <r>   2.7870  1.0000</r>
       <r>   2.8581  1.0000</r>
       <r>   2.9832  1.0000</r>
       <r>   2.9832  1.0000</r>
       <r>   2.9833  1.0000</r>
       <r>   2.9833  1.0000</r>
       <r>   2.9964  1.0000</r>
       <r>   2.9964  1.0000</r>
       <r>   3.2594  1.0000</r>
       <r>   3.2598  1.0000</r>
       <r>   3.2606  1.0000</r>
       <r>   3.2611  1.0000</r>
       <r>   3.5416  1.0000</r>
       <r>   3.5417  1.0000</r>
       <r>   3.5417  1.0000</r>
       <r>   3.5417  1.0000</r>
       <r>   4.4027  1.0000</r>
       <r>   4.4819  1.0000</r>
       <r>   4.4820  1.0000</r>
       <r>   4.4820  1.0000</r>
       <r>   4.4820  1.0000</r>
       <r>   4.5776  1.0000</r>
       <r>   4.5776  1.0000</r>
       <r>   4.5776  1.0000</r>
       <r>   4.5777  1.0000</r>
       <r>   5.9800  0.0000</r>
       <r>   5.9800  0.0000</r>
       <r>   5.9800  0.0000</r>
       <r>   5.9800  0.0000</r>
       <r>   7.1661  0.0000</r>
       <r>   7.1661  0.0000</r>
       <r>   7.9074  0.0000</r>
       <r>   7.9074  0.0000</r>
       <r>   7.9074  0.0000</r>
       <r>   7.9074  0.0000</r>
       <r>   8.6971  0.0000</r>
       <r>   8.6971  0.0000</r>
       <r>   8.6971  0.0000</r>
       <r>   8.6971  0.0000</r>
       <r>   9.0395  0.0000</r>
       <r>   9.0395  0.0000</r>
       <r>   9.6242  0.0000</r>
       <r>   9.6242  0.0000</r>
       <r>  10.0452  0.0000</r>
       <r>  10.0452  0.0000</r>
       <r>  10.9683  0.0000</r>
       <r>  10.9683  0.0000</r>
       <r>  10.9683  0.0000</r>
       <r>  10.9683  0.0000</r>
       <r>  11.5397  0.0000</r>
       <r>  11.5397  0.0000</r>
       <r>  11.5398  0.0000</r>
       <r>  11.5398  0.0000</r>
       <r>  11.6099  0.0000</r>
       <r>  11.6099  0.0000</r>
       <r>  11.6099  0.0000</r>
       <r>  11.6099  0.0000</r>
       <r>  12.1571  0.0000</r>
       <r>  12.1571  0.0000</r>
       <r>  12.1571  0.0000</r>
       <r>  12.1571  0.0000</r>
      </set>
      <set comment="kpoint 6">
       <r>  -3.7688  1.0000</r>
       <r>  -3.3347  1.0000</r>
       <r>  -1.6122  1.0000</r>
       <r>  -1.6121  1.0000</r>
       <r>  -1.6121  1.0000</r>
       <r>  -1.6121  1.0000</r>
       <r>  -1.5683  1.0000</r>
       <r>  -1.5683  1.0000</r>
       <r>  -1.5683  1.0000</r>
       <r>  -1.5683  1.0000</r>
       <r>  -1.4486  1.0000</r>
       <r>  -1.3856  1.0000</r>
       <r>  -1.3393  1.0000</r>
       <r>  -1.3393  1.0000</r>
       <r>  -1.3392  1.0000</r>
       <r>  -1.3392  1.0000</r>
       <r>  -1.3277  1.0000</r>
       <r>  -1.3276  1.0000</r>
       <r>  -1.3276  1.0000</r>
       <r>  -1.3276  1.0000</r>
       <r>  -1.2849  1.0000</r>
       <r>  -1.2849  1.0000</r>
       <r>  -1.1420  1.0000</r>
       <r>  -1.0521  1.0000</r>
       <r>  -1.0521  1.0000</r>
       <r>  -1.0368  1.0000</r>
       <r>  -1.0368  1.0000</r>
       <r>  -0.9897  1.0000</r>
       <r>  -0.8075  1.0000</r>
       <r>  -0.8075  1.0000</r>
       <r>  -0.3834  1.0000</r>
       <r>  -0.3832  1.0000</r>
       <r>  -0.3832  1.0000</r>
       <r>  -0.3832  1.0000</r>
       <r>  -0.3527  1.0000</r>
       <r>  -0.3527  1.0000</r>
       <r>  -0.3527  1.0000</r>
       <r>  -0.3525  1.0000</r>
       <r>  -0.3202  1.0000</r>
       <r>  -0.3201  1.0000</r>
       <r>  -0.3201  1.0000</r>
       <r>  -0.3201  1.0000</r>
       <r>  -0.2048  1.0000</r>
       <r>  -0.2048  1.0000</r>
       <r>  -0.2048  1.0000</r>
       <r>  -0.2048  1.0000</r>
       <r>  -0.0388  1.0000</r>
       <r>  -0.0388  1.0000</r>
       <r>  -0.0388  1.0000</r>
       <r>  -0.0387  1.0000</r>
       <r>  -0.0206  1.0000</r>
       <r>  -0.0206  1.0000</r>
       <r>  -0.0206  1.0000</r>
       <r>  -0.0205  1.0000</r>
       <r>   0.1298  1.0000</r>
       <r>   0.1650  1.0000</r>
       <r>   0.1659  1.0000</r>
       <r>   0.1659  1.0000</r>
       <r>   0.1660  1.0000</r>
       <r>   0.1721  1.0000</r>
       <r>   0.1722  1.0000</r>
       <r>   0.1722  1.0000</r>
       <r>   0.1731  1.0000</r>
       <r>   0.3211  1.0000</r>
       <r>   0.3487  1.0000</r>
       <r>   0.3487  1.0000</r>
       <r>   0.3487  1.0000</r>
       <r>   0.3487  1.0000</r>
       <r>   0.4194  1.0000</r>
       <r>   0.4194  1.0000</r>
       <r>   0.4195  1.0000</r>
       <r>   0.4195  1.0000</r>
       <r>   0.5267  1.0000</r>
       <r>   0.5268  1.0000</r>
       <r>   0.5268  1.0000</r>
       <r>   0.5268  1.0000</r>
       <r>   0.6851  1.0000</r>
       <r>   0.6851  1.0000</r>
       <r>   0.6851  1.0000</r>
       <r>   0.6852  1.0000</r>
       <r>   0.7212  1.0000</r>
       <r>   0.7212  1.0000</r>
       <r>   0.7212  1.0000</r>
       <r>   0.7212  1.0000</r>
       <r>   0.7493  1.0000</r>
       <r>   0.7493  1.0000</r>
       <r>   0.9072  1.0000</r>
       <r>   0.9072  1.0000</r>
       <r>   0.9072  1.0000</r>
       <r>   0.9072  1.0000</r>
       <r>   0.9426  1.0000</r>
       <r>   0.9426  1.0000</r>
       <r>   1.2754  1.0000</r>
       <r>   1.2754  1.0000</r>
       <r>   1.2754  1.0000</r>
       <r>   1.2754  1.0000</r>
       <r>   1.4796  1.0000</r>
       <r>   1.5315  1.0000</r>
       <r>   1.5315  1.0000</r>
       <r>   1.6538  1.0000</r>
       <r>   1.6538  1.0000</r>
       <r>   1.6538  1.0000</r>
       <r>   1.6538  1.0000</r>
       <r>   1.6671  1.0000</r>
       <r>   1.6682  1.0000</r>
       <r>   1.6682  1.0000</r>
       <r>   1.6682  1.0000</r>
       <r>   1.6682  1.0000</r>
       <r>   1.6738  1.0000</r>
       <r>   1.6738  1.0000</r>
       <r>   1.6738  1.0000</r>
       <r>   1.6740  1.0000</r>
       <r>   1.7535  1.0000</r>
       <r>   1.7536  1.0000</r>
       <r>   1.7536  1.0000</r>
       <r>   1.7536  1.0000</r>
       <r>   1.8124  1.0000</r>
       <r>   1.8125  1.0000</r>
       <r>   1.8126  1.0000</r>
       <r>   1.8126  1.0000</r>
       <r>   1.8230  1.0000</r>
       <r>   1.8230  1.0000</r>
       <r>   1.8231  1.0000</r>
       <r>   1.8232  1.0000</r>
       <r>   1.8796  1.0000</r>
       <r>   1.8796  1.0000</r>
       <r>   1.8796  1.0000</r>
       <r>   1.8796  1.0000</r>
       <r>   1.9997  1.0000</r>
       <r>   2.0900  1.0000</r>
       <r>   2.1603  1.0000</r>
       <r>   2.1603  1.0000</r>
       <r>   2.3139  1.0000</r>
       <r>   2.3139  1.0000</r>
       <r>   2.4492  1.0000</r>
       <r>   2.4492  1.0000</r>
       <r>   2.4492  1.0000</r>
       <r>   2.4492  1.0000</r>
       <r>   2.5432  1.0000</r>
       <r>   2.5432  1.0000</r>
       <r>   2.5483  1.0000</r>
       <r>   2.5483  1.0000</r>
       <r>   2.5483  1.0000</r>
       <r>   2.5484  1.0000</r>
       <r>   2.5958  1.0000</r>
       <r>   2.5958  1.0000</r>
       <r>   2.6631  1.0000</r>
       <r>   2.6888  1.0000</r>
       <r>   2.6888  1.0000</r>
       <r>   2.6888  1.0000</r>
       <r>   2.6888  1.0000</r>
       <r>   2.7175  1.0000</r>
       <r>   2.8181  1.0000</r>
       <r>   2.8484  1.0000</r>
       <r>   2.8484  1.0000</r>
       <r>   2.8485  1.0000</r>
       <r>   2.8485  1.0000</r>
       <r>   2.8620  1.0000</r>
       <r>   2.8620  1.0000</r>
       <r>   2.8717  1.0000</r>
       <r>   2.8717  1.0000</r>
       <r>   2.8718  1.0000</r>
       <r>   2.8718  1.0000</r>
       <r>   3.2594  1.0000</r>
       <r>   3.2600  1.0000</r>
       <r>   3.2604  1.0000</r>
       <r>   3.2610  1.0000</r>
       <r>   3.3055  1.0000</r>
       <r>   3.3055  1.0000</r>
       <r>   3.3055  1.0000</r>
       <r>   3.3055  1.0000</r>
[...]
       <r>   1.4634  1.0000</r>
       <r>   1.4634  1.0000</r>
       <r>   1.4638  1.0000</r>
       <r>   1.4638  1.0000</r>
       <r>   1.4638  1.0000</r>
       <r>   1.4638  1.0000</r>
       <r>   1.4643  1.0000</r>
       <r>   1.4643  1.0000</r>
       <r>   1.8183  1.0000</r>
       <r>   1.8186  1.0000</r>
       <r>   1.8186  1.0000</r>
       <r>   1.8187  1.0000</r>
       <r>   1.8627  1.0000</r>
       <r>   1.8629  1.0000</r>
       <r>   1.8629  1.0000</r>
       <r>   1.8630  1.0000</r>
       <r>   1.8649  1.0000</r>
       <r>   1.8649  1.0000</r>
       <r>   1.8656  1.0000</r>
       <r>   1.8656  1.0000</r>
       <r>   1.8656  1.0000</r>
       <r>   1.8662  1.0000</r>
       <r>   1.8664  1.0000</r>
       <r>   1.8664  1.0000</r>
       <r>   2.1034  1.0000</r>
       <r>   2.1036  1.0000</r>
       <r>   2.1036  1.0000</r>
       <r>   2.1036  1.0000</r>
       <r>   2.1166  1.0000</r>
       <r>   2.1166  1.0000</r>
       <r>   2.1166  1.0000</r>
       <r>   2.1168  1.0000</r>
       <r>   2.3103  1.0000</r>
       <r>   2.3103  1.0000</r>
       <r>   2.3103  1.0000</r>
       <r>   2.3103  1.0000</r>
       <r>   2.9872  1.0000</r>
       <r>   2.9872  1.0000</r>
       <r>   2.9874  1.0000</r>
       <r>   2.9874  1.0000</r>
       <r>   2.9874  1.0000</r>
       <r>   2.9874  1.0000</r>
       <r>   2.9877  1.0000</r>
       <r>   2.9877  1.0000</r>
       <r>   3.0058  1.0000</r>
       <r>   3.0058  1.0000</r>
       <r>   3.0058  1.0000</r>
       <r>   3.0058  1.0000</r>
       <r>   3.0288  1.0000</r>
       <r>   3.0288  1.0000</r>
       <r>   3.0289  1.0000</r>
       <r>   3.0289  1.0000</r>
       <r>   3.0299  1.0000</r>
       <r>   3.0299  1.0000</r>
       <r>   3.0301  1.0000</r>
       <r>   3.0301  1.0000</r>
       <r>   3.0301  1.0000</r>
       <r>   3.0302  1.0000</r>
       <r>   3.0304  1.0000</r>
       <r>   3.0304  1.0000</r>
       <r>   4.7607  1.0000</r>
       <r>   4.7607  1.0000</r>
       <r>   4.7607  1.0000</r>
       <r>   4.7608  1.0000</r>
       <r>   5.4486  0.0000</r>
       <r>   5.4486  0.0000</r>
       <r>   5.4489  0.0000</r>
       <r>   5.4490  0.0000</r>
       <r>   5.4490  0.0000</r>
       <r>   5.4490  0.0000</r>
       <r>   5.4493  0.0000</r>
       <r>   5.4493  0.0000</r>
       <r>   6.4237  0.0000</r>
       <r>   6.4237  0.0000</r>
       <r>   6.4244  0.0000</r>
       <r>   6.4244  0.0000</r>
       <r>   6.4244  0.0000</r>
       <r>   6.4244  0.0000</r>
       <r>   6.4250  0.0000</r>
       <r>   6.4250  0.0000</r>
       <r>   7.1178  0.0000</r>
       <r>   7.1178  0.0000</r>
       <r>   7.1178  0.0000</r>
       <r>   7.1178  0.0000</r>
       <r>   9.2372  0.0000</r>
       <r>   9.2372  0.0000</r>
       <r>   9.2373  0.0000</r>
       <r>   9.2373  0.0000</r>
       <r>   9.2373  0.0000</r>
       <r>   9.2373  0.0000</r>
       <r>   9.2375  0.0000</r>
       <r>   9.2375  0.0000</r>
       <r>   9.6283  0.0000</r>
       <r>   9.6283  0.0000</r>
       <r>   9.6283  0.0000</r>
       <r>   9.6283  0.0000</r>
       <r>  10.9473  0.0000</r>
       <r>  10.9473  0.0000</r>
       <r>  10.9473  0.0000</r>
       <r>  10.9473  0.0000</r>
       <r>  11.2881  0.0000</r>
       <r>  11.2881  0.0000</r>
       <r>  11.2881  0.0000</r>
       <r>  11.2881  0.0000</r>
       <r>  11.2881  0.0000</r>
       <r>  11.2881  0.0000</r>
       <r>  11.2882  0.0000</r>
       <r>  11.2882  0.0000</r>
      </set>
      <set comment="kpoint 195">
       <r>  -2.6590  1.0000</r>
       <r>  -2.6589  1.0000</r>
       <r>  -2.6589  1.0000</r>
       <r>  -2.6589  1.0000</r>
       <r>  -2.3955  1.0000</r>
       <r>  -2.3955  1.0000</r>
       <r>  -2.3955  1.0000</r>
       <r>  -2.3955  1.0000</r>
       <r>  -1.0678  1.0000</r>
       <r>  -1.0677  1.0000</r>
       <r>  -1.0676  1.0000</r>
       <r>  -1.0676  1.0000</r>
       <r>  -1.0421  1.0000</r>
       <r>  -1.0421  1.0000</r>
       <r>  -1.0418  1.0000</r>
       <r>  -1.0418  1.0000</r>
       <r>  -1.0418  1.0000</r>
       <r>  -1.0416  1.0000</r>
       <r>  -1.0415  1.0000</r>
       <r>  -1.0415  1.0000</r>
       <r>  -1.0173  1.0000</r>
       <r>  -1.0167  1.0000</r>
       <r>  -1.0167  1.0000</r>
       <r>  -1.0164  1.0000</r>
       <r>  -1.0135  1.0000</r>
       <r>  -1.0135  1.0000</r>
       <r>  -1.0130  1.0000</r>
       <r>  -1.0130  1.0000</r>
       <r>  -1.0129  1.0000</r>
       <r>  -1.0122  1.0000</r>
       <r>  -1.0122  1.0000</r>
       <r>  -1.0121  1.0000</r>
       <r>  -0.3114  1.0000</r>
       <r>  -0.3114  1.0000</r>
       <r>  -0.3108  1.0000</r>
       <r>  -0.3108  1.0000</r>
       <r>  -0.3108  1.0000</r>
       <r>  -0.3108  1.0000</r>
       <r>  -0.3102  1.0000</r>
       <r>  -0.3102  1.0000</r>
       <r>  -0.2794  1.0000</r>
       <r>  -0.2793  1.0000</r>
       <r>  -0.2793  1.0000</r>
       <r>  -0.2793  1.0000</r>
       <r>  -0.0982  1.0000</r>
       <r>  -0.0979  1.0000</r>
       <r>  -0.0979  1.0000</r>
       <r>  -0.0976  1.0000</r>
       <r>  -0.0975  1.0000</r>
       <r>  -0.0975  1.0000</r>
       <r>  -0.0971  1.0000</r>
       <r>  -0.0971  1.0000</r>
       <r>  -0.0971  1.0000</r>
       <r>  -0.0966  1.0000</r>
       <r>  -0.0966  1.0000</r>
       <r>  -0.0966  1.0000</r>
       <r>   0.3894  1.0000</r>
       <r>   0.3894  1.0000</r>
       <r>   0.3894  1.0000</r>
       <r>   0.3894  1.0000</r>
       <r>   0.5106  1.0000</r>
       <r>   0.5106  1.0000</r>
       <r>   0.5106  1.0000</r>
       <r>   0.5106  1.0000</r>
       <r>   0.7874  1.0000</r>
       <r>   0.7877  1.0000</r>
       <r>   0.7877  1.0000</r>
       <r>   0.7880  1.0000</r>
       <r>   0.7913  1.0000</r>
       <r>   0.7914  1.0000</r>
       <r>   0.7914  1.0000</r>
       <r>   0.7919  1.0000</r>
       <r>   0.7956  1.0000</r>
       <r>   0.7957  1.0000</r>
       <r>   0.7958  1.0000</r>
       <r>   0.7958  1.0000</r>
       <r>   0.8115  1.0000</r>
       <r>   0.8115  1.0000</r>
       <r>   0.8118  1.0000</r>
       <r>   0.8119  1.0000</r>
       <r>   0.8130  1.0000</r>
       <r>   0.8130  1.0000</r>
       <r>   0.8134  1.0000</r>
       <r>   0.8134  1.0000</r>
       <r>   0.8493  1.0000</r>
       <r>   0.8493  1.0000</r>
       <r>   0.8510  1.0000</r>
       <r>   0.8510  1.0000</r>
       <r>   0.8510  1.0000</r>
       <r>   0.8511  1.0000</r>
       <r>   0.8528  1.0000</r>
       <r>   0.8528  1.0000</r>
       <r>   0.9439  1.0000</r>
       <r>   0.9439  1.0000</r>
       <r>   0.9452  1.0000</r>
       <r>   0.9452  1.0000</r>
       <r>   0.9452  1.0000</r>
       <r>   0.9453  1.0000</r>
       <r>   0.9467  1.0000</r>
       <r>   0.9467  1.0000</r>
       <r>   1.0064  1.0000</r>
       <r>   1.0065  1.0000</r>
       <r>   1.0065  1.0000</r>
       <r>   1.0065  1.0000</r>
       <r>   1.4904  1.0000</r>
       <r>   1.4905  1.0000</r>
       <r>   1.4905  1.0000</r>
       <r>   1.4905  1.0000</r>
       <r>   1.5285  1.0000</r>
       <r>   1.5285  1.0000</r>
       <r>   1.5291  1.0000</r>
       <r>   1.5291  1.0000</r>
       <r>   1.5291  1.0000</r>
       <r>   1.5291  1.0000</r>
       <r>   1.5297  1.0000</r>
       <r>   1.5297  1.0000</r>
       <r>   1.7253  1.0000</r>
       <r>   1.7253  1.0000</r>
       <r>   1.7260  1.0000</r>
       <r>   1.7260  1.0000</r>
       <r>   1.7261  1.0000</r>
       <r>   1.7261  1.0000</r>
       <r>   1.7268  1.0000</r>
       <r>   1.7268  1.0000</r>
       <r>   1.7398  1.0000</r>
       <r>   1.7398  1.0000</r>
       <r>   1.7398  1.0000</r>
       <r>   1.7399  1.0000</r>
       <r>   1.9341  1.0000</r>
       <r>   1.9341  1.0000</r>
       <r>   1.9341  1.0000</r>
       <r>   1.9341  1.0000</r>
       <r>   2.0573  1.0000</r>
       <r>   2.0574  1.0000</r>
       <r>   2.0574  1.0000</r>
       <r>   2.0574  1.0000</r>
       <r>   2.0817  1.0000</r>
       <r>   2.0817  1.0000</r>
       <r>   2.0817  1.0000</r>
       <r>   2.0818  1.0000</r>
       <r>   2.1833  1.0000</r>
       <r>   2.1833  1.0000</r>
       <r>   2.1833  1.0000</r>
       <r>   2.1833  1.0000</r>
       <r>   3.0272  1.0000</r>
       <r>   3.0272  1.0000</r>
       <r>   3.0273  1.0000</r>
       <r>   3.0273  1.0000</r>
       <r>   3.0273  1.0000</r>
       <r>   3.0273  1.0000</r>
       <r>   3.0274  1.0000</r>
       <r>   3.0274  1.0000</r>
       <r>   3.0367  1.0000</r>
       <r>   3.0367  1.0000</r>
       <r>   3.0367  1.0000</r>
       <r>   3.0367  1.0000</r>
       <r>   3.0499  1.0000</r>
       <r>   3.0499  1.0000</r>
       <r>   3.0500  1.0000</r>
       <r>   3.0500  1.0000</r>
       <r>   3.0550  1.0000</r>
       <r>   3.0550  1.0000</r>
       <r>   3.0551  1.0000</r>
       <r>   3.0551  1.0000</r>
       <r>   3.0551  1.0000</r>
       <r>   3.0551  1.0000</r>
       <r>   3.0553  1.0000</r>
       <r>   3.0553  1.0000</r>
       <r>   5.3114  0.0000</r>
       <r>   5.3114  0.0000</r>
       <r>   5.3114  0.0000</r>
       <r>   5.3114  0.0000</r>
       <r>   5.6568  0.0000</r>
       <r>   5.6568  0.0000</r>
       <r>   5.6572  0.0000</r>
       <r>   5.6573  0.0000</r>
       <r>   5.6573  0.0000</r>
       <r>   5.6573  0.0000</r>
       <r>   5.6577  0.0000</r>
       <r>   5.6577  0.0000</r>
       <r>   6.1505  0.0000</r>
       <r>   6.1505  0.0000</r>
       <r>   6.1511  0.0000</r>
       <r>   6.1511  0.0000</r>
       <r>   6.1511  0.0000</r>
       <r>   6.1511  0.0000</r>
       <r>   6.1517  0.0000</r>
       <r>   6.1517  0.0000</r>
       <r>   6.4999  0.0000</r>
       <r>   6.4999  0.0000</r>
       <r>   6.4999  0.0000</r>
       <r>   6.4999  0.0000</r>
       <r>   9.7053  0.0000</r>
       <r>   9.7053  0.0000</r>
       <r>   9.7054  0.0000</r>
       <r>   9.7054  0.0000</r>
       <r>   9.7054  0.0000</r>
       <r>   9.7054  0.0000</r>
       <r>   9.7055  0.0000</r>
       <r>   9.7055  0.0000</r>
       <r>   9.8920  0.0000</r>
       <r>   9.8920  0.0000</r>
       <r>   9.8920  0.0000</r>
       <r>   9.8920  0.0000</r>
       <r>  10.5604  0.0000</r>
       <r>  10.5604  0.0000</r>
       <r>  10.5604  0.0000</r>
       <r>  10.5604  0.0000</r>
       <r>  10.7359  0.0000</r>
       <r>  10.7359  0.0000</r>
       <r>  10.7359  0.0000</r>
       <r>  10.7359  0.0000</r>
       <r>  10.7359  0.0000</r>
       <r>  10.7359  0.0000</r>
       <r>  10.7359  0.0000</r>
       <r>  10.7359  0.0000</r>
      </set>
      <set comment="kpoint 196">
       <r>  -2.5392  1.0000</r>
       <r>  -2.5358  1.0000</r>
       <r>  -2.5358  1.0000</r>
       <r>  -2.5353  1.0000</r>
       <r>  -2.5349  1.0000</r>
       <r>  -2.5344  1.0000</r>
       <r>  -2.5344  1.0000</r>
       <r>  -2.5310  1.0000</r>
       <r>  -1.0354  1.0000</r>
       <r>  -1.0354  1.0000</r>
       <r>  -1.0354  1.0000</r>
       <r>  -1.0353  1.0000</r>
       <r>  -1.0347  1.0000</r>
       <r>  -1.0338  1.0000</r>
       <r>  -1.0329  1.0000</r>
       <r>  -1.0329  1.0000</r>
       <r>  -1.0329  1.0000</r>
       <r>  -1.0328  1.0000</r>
       <r>  -1.0328  1.0000</r>
       <r>  -1.0327  1.0000</r>
       <r>  -1.0326  1.0000</r>
       <r>  -1.0325  1.0000</r>
       <r>  -1.0325  1.0000</r>
       <r>  -1.0325  1.0000</r>
       <r>  -1.0325  1.0000</r>
       <r>  -1.0324  1.0000</r>
       <r>  -1.0317  1.0000</r>
       <r>  -1.0307  1.0000</r>
       <r>  -1.0302  1.0000</r>
       <r>  -1.0301  1.0000</r>
       <r>  -1.0301  1.0000</r>
       <r>  -1.0300  1.0000</r>
       <r>  -0.2016  1.0000</r>
       <r>  -0.1978  1.0000</r>
       <r>  -0.1974  1.0000</r>
       <r>  -0.1972  1.0000</r>
       <r>  -0.1972  1.0000</r>
       <r>  -0.1966  1.0000</r>
       <r>  -0.1962  1.0000</r>
       <r>  -0.1962  1.0000</r>
       <r>  -0.1960  1.0000</r>
       <r>  -0.1959  1.0000</r>
       <r>  -0.1959  1.0000</r>
       <r>  -0.1958  1.0000</r>
       <r>  -0.1958  1.0000</r>
       <r>  -0.1958  1.0000</r>
       <r>  -0.1958  1.0000</r>
       <r>  -0.1957  1.0000</r>
       <r>  -0.1955  1.0000</r>
       <r>  -0.1955  1.0000</r>
       <r>  -0.1951  1.0000</r>
       <r>  -0.1945  1.0000</r>
       <r>  -0.1945  1.0000</r>
       <r>  -0.1943  1.0000</r>
       <r>  -0.1939  1.0000</r>
       <r>  -0.1902  1.0000</r>
       <r>   0.4540  1.0000</r>
       <r>   0.4558  1.0000</r>
       <r>   0.4563  1.0000</r>
       <r>   0.4563  1.0000</r>
       <r>   0.4566  1.0000</r>
       <r>   0.4566  1.0000</r>
       <r>   0.4571  1.0000</r>
       <r>   0.4589  1.0000</r>
       <r>   0.7966  1.0000</r>
       <r>   0.7966  1.0000</r>
       <r>   0.7971  1.0000</r>
       <r>   0.7974  1.0000</r>
       <r>   0.7981  1.0000</r>
       <r>   0.7981  1.0000</r>
       <r>   0.7982  1.0000</r>
       <r>   0.7982  1.0000</r>
       <r>   0.7986  1.0000</r>
       <r>   0.7986  1.0000</r>
       <r>   0.7987  1.0000</r>
       <r>   0.7988  1.0000</r>
       <r>   0.7994  1.0000</r>
       <r>   0.7996  1.0000</r>
       <r>   0.8000  1.0000</r>
       <r>   0.8000  1.0000</r>
       <r>   0.8914  1.0000</r>
       <r>   0.8914  1.0000</r>
       <r>   0.8925  1.0000</r>
       <r>   0.8929  1.0000</r>
       <r>   0.8946  1.0000</r>
       <r>   0.8954  1.0000</r>
       <r>   0.8955  1.0000</r>
       <r>   0.8955  1.0000</r>
       <r>   0.8956  1.0000</r>
       <r>   0.8956  1.0000</r>
       <r>   0.8956  1.0000</r>
       <r>   0.8956  1.0000</r>
       <r>   0.8957  1.0000</r>
       <r>   0.8958  1.0000</r>
       <r>   0.8958  1.0000</r>
       <r>   0.8958  1.0000</r>
       <r>   0.8959  1.0000</r>
       <r>   0.8959  1.0000</r>
       <r>   0.8960  1.0000</r>
       <r>   0.8968  1.0000</r>
       <r>   0.8985  1.0000</r>
       <r>   0.8989  1.0000</r>
       <r>   0.9001  1.0000</r>
       <r>   0.9001  1.0000</r>
       <r>   1.6094  1.0000</r>
       <r>   1.6110  1.0000</r>
       <r>   1.6110  1.0000</r>
       <r>   1.6134  1.0000</r>
       <r>   1.6136  1.0000</r>
       <r>   1.6137  1.0000</r>
       <r>   1.6137  1.0000</r>
       <r>   1.6140  1.0000</r>
       <r>   1.6142  1.0000</r>
       <r>   1.6142  1.0000</r>
       <r>   1.6142  1.0000</r>
       <r>   1.6142  1.0000</r>
       <r>   1.6143  1.0000</r>
       <r>   1.6143  1.0000</r>
       <r>   1.6143  1.0000</r>
       <r>   1.6143  1.0000</r>
       <r>   1.6145  1.0000</r>
       <r>   1.6148  1.0000</r>
       <r>   1.6148  1.0000</r>
       <r>   1.6149  1.0000</r>
       <r>   1.6151  1.0000</r>
       <r>   1.6176  1.0000</r>
       <r>   1.6176  1.0000</r>
       <r>   1.6191  1.0000</r>
       <r>   2.0535  1.0000</r>
       <r>   2.0551  1.0000</r>
       <r>   2.0552  1.0000</r>
       <r>   2.0552  1.0000</r>
       <r>   2.0564  1.0000</r>
       <r>   2.0564  1.0000</r>
       <r>   2.0566  1.0000</r>
       <r>   2.0567  1.0000</r>
       <r>   2.0569  1.0000</r>
       <r>   2.0570  1.0000</r>
       <r>   2.0572  1.0000</r>
       <r>   2.0572  1.0000</r>
       <r>   2.0584  1.0000</r>
       <r>   2.0584  1.0000</r>
       <r>   2.0586  1.0000</r>
       <r>   2.0602  1.0000</r>
       <r>   3.0513  1.0000</r>
       <r>   3.0513  1.0000</r>
       <r>   3.0516  1.0000</r>
       <r>   3.0518  1.0000</r>
       <r>   3.0518  1.0000</r>
       <r>   3.0518  1.0000</r>
       <r>   3.0518  1.0000</r>
       <r>   3.0519  1.0000</r>
       <r>   3.0520  1.0000</r>
       <r>   3.0521  1.0000</r>
       <r>   3.0521  1.0000</r>
       <r>   3.0521  1.0000</r>
       <r>   3.0523  1.0000</r>
       <r>   3.0524  1.0000</r>
       <r>   3.0524  1.0000</r>
       <r>   3.0525  1.0000</r>
       <r>   3.0526  1.0000</r>
       <r>   3.0526  1.0000</r>
       <r>   3.0526  1.0000</r>
       <r>   3.0526  1.0000</r>
       <r>   3.0527  1.0000</r>
       <r>   3.0530  1.0000</r>
       <r>   3.0532  1.0000</r>
       <r>   3.0532  1.0000</r>
       <r>   5.8877  0.0000</r>
       <r>   5.8905  0.0000</r>
       <r>   5.8905  0.0000</r>
       <r>   5.8924  0.0000</r>
       <r>   5.8931  0.0000</r>
       <r>   5.8933  0.0000</r>
       <r>   5.8933  0.0000</r>
       <r>   5.8934  0.0000</r>
       <r>   5.8934  0.0000</r>
       <r>   5.8934  0.0000</r>
       <r>   5.8935  0.0000</r>
       <r>   5.8935  0.0000</r>
       <r>   5.8938  0.0000</r>
       <r>   5.8938  0.0000</r>
       <r>   5.8938  0.0000</r>
       <r>   5.8939  0.0000</r>
       <r>   5.8939  0.0000</r>
       <r>   5.8939  0.0000</r>
       <r>   5.8939  0.0000</r>
       <r>   5.8942  0.0000</r>
       <r>   5.8948  0.0000</r>
       <r>   5.8967  0.0000</r>
       <r>   5.8967  0.0000</r>
       <r>   5.8996  0.0000</r>
       <r>  10.2006  0.0000</r>
       <r>  10.2006  0.0000</r>
       <r>  10.2040  0.0000</r>
       <r>  10.2041  0.0000</r>
       <r>  10.2048  0.0000</r>
       <r>  10.2053  0.0000</r>
       <r>  10.2053  0.0000</r>
       <r>  10.2060  0.0000</r>
       <r>  10.2060  0.0000</r>
       <r>  10.2060  0.0000</r>
       <r>  10.2060  0.0000</r>
       <r>  10.2060  0.0000</r>
       <r>  10.2061  0.0000</r>
       <r>  10.2061  0.0000</r>
       <r>  10.2061  0.0000</r>
       <r>  10.2061  0.0000</r>
       <r>  10.2061  0.0000</r>
       <r>  10.2068  0.0000</r>
       <r>  10.2068  0.0000</r>
       <r>  10.2073  0.0000</r>
       <r>  10.2080  0.0000</r>
       <r>  10.2081  0.0000</r>
       <r>  10.2115  0.0000</r>
       <r>  10.2115  0.0000</r>
      </set>
     </set>
    </set>
   </array>
  </eigenvalues>
 </calculation>
 <structure name="finalpos" >
  <crystal>
   <varray name="basis" >
    <v>       8.34570380      0.00000000      0.00000000</v>
    <v>       0.00000000      8.34570380      0.00000000</v>
    <v>       0.00000000      0.00000000      8.34570380</v>
   </varray>
   <i name="volume">    581.28471283</i>
   <varray name="rec_basis" >
    <v>       0.11982213      0.00000000      0.00000000</v>
    <v>       0.00000000      0.11982213      0.00000000</v>
    <v>       0.00000000      0.00000000      0.11982213</v>
   </varray>
  </crystal>
  <varray name="positions" >
   <v>       0.00119822      0.00000000      0.00000000</v>
   <v>       0.50000000      0.00000000      0.00000000</v>
   <v>       0.00000000      0.50000000      0.00000000</v>
   <v>       0.50000000      0.50000000      0.00000000</v>
   <v>       0.00000000      0.00000000      0.50000000</v>
   <v>       0.50000000      0.00000000      0.50000000</v>
   <v>       0.00000000      0.50000000      0.50000000</v>
   <v>       0.50000000      0.50000000      0.50000000</v>
   <v>       0.25000000      0.25000000      0.00000000</v>
   <v>       0.75000000      0.25000000      0.00000000</v>
   <v>       0.25000000      0.75000000      0.00000000</v>
   <v>       0.75000000      0.75000000      0.00000000</v>
   <v>       0.25000000      0.25000000      0.50000000</v>
   <v>       0.75000000      0.25000000      0.50000000</v>
   <v>       0.25000000      0.75000000      0.50000000</v>
   <v>       0.75000000      0.75000000      0.50000000</v>
   <v>       0.25000000      0.00000000      0.25000000</v>
   <v>       0.75000000      0.00000000      0.25000000</v>
   <v>       0.25000000      0.50000000      0.25000000</v>
   <v>       0.75000000      0.50000000      0.25000000</v>
   <v>       0.25000000      0.00000000      0.75000000</v>
   <v>       0.75000000      0.00000000      0.75000000</v>
   <v>       0.25000000      0.50000000      0.75000000</v>
   <v>       0.75000000      0.50000000      0.75000000</v>
   <v>       0.00000000      0.25000000      0.25000000</v>
   <v>       0.50000000      0.25000000      0.25000000</v>
   <v>       0.00000000      0.75000000      0.25000000</v>
   <v>       0.50000000      0.75000000      0.25000000</v>
   <v>       0.00000000      0.25000000      0.75000000</v>
   <v>       0.50000000      0.25000000      0.75000000</v>
   <v>       0.00000000      0.75000000      0.75000000</v>
   <v>       0.50000000      0.75000000      0.75000000</v>
  </varray>
 </structure>
</modeling>
