<?xml version="1.0" encoding="ISO-8859-1"?>
<modeling>
 <generator>
  <i name="program" type="string">vasp</i>
  <i name="version" type="string">4.6.28 </i>
  <i name="subversion" type="string">25Jul05 complex  parallel</i>
  <i name="platform" type="string">LinuxIFC</i>
  <i name="date" type="string">2016 10 19</i>
  <i name="time" type="string">17:42:13</i>
 </generator>
 <incar>
  <i type="string" name="PREC">accurate</i>
  <i type="int" name="IALGO">    38</i>
  <i name="EDIFF">      0.00000001</i>
  <i type="int" name="IBRION">    -1</i>
  <i name="ENCUT">    500.00000000</i>
  <i type="logical" name="LREAL"> F  </i>
  <i type="int" name="ISMEAR">     0</i>
  <i name="SIGMA">      0.01000000</i>
  <i type="logical" name="LWAVE"> F  </i>
  <i type="logical" name="LCHARG"> F  </i>
 </incar>
 <kpoints>
  <generation param="Auto">
   <i name="subdivisionlength">     50.00000000</i>
   <v type="int" name="divisions">      12      12      12</v>
   <v name="usershift">      0.00000000      0.00000000      0.00000000</v>
   <v name="genvec1">      0.08333333      0.00000000      0.00000000</v>
   <v name="genvec2">      0.00000000      0.08333333      0.00000000</v>
   <v name="genvec3">      0.00000000      0.00000000      0.08333333</v>
   <v name="shift">      0.00000000      0.00000000      0.00000000</v>
  </generation>
  <varray name="kpointlist" >
   <v>       0.00000000      0.00000000      0.00000000</v>
   <v>       0.08333333      0.00000000      0.00000000</v>
   <v>       0.16666667      0.00000000      0.00000000</v>
   <v>       0.25000000      0.00000000      0.00000000</v>
   <v>       0.33333333      0.00000000      0.00000000</v>
   <v>       0.41666667      0.00000000      0.00000000</v>
   <v>       0.50000000      0.00000000      0.00000000</v>
   <v>       0.08333333      0.08333333      0.00000000</v>
   <v>       0.16666667      0.08333333      0.00000000</v>
   <v>       0.25000000      0.08333333      0.00000000</v>
   <v>       0.33333333      0.08333333      0.00000000</v>
   <v>       0.41666667      0.08333333      0.00000000</v>
   <v>       0.50000000      0.08333333      0.00000000</v>
   <v>       0.16666667      0.16666667      0.00000000</v>
   <v>       0.25000000      0.16666667      0.00000000</v>
   <v>       0.33333333      0.16666667      0.00000000</v>
   <v>       0.41666667      0.16666667      0.00000000</v>
   <v>       0.50000000      0.16666667      0.00000000</v>
   <v>       0.25000000      0.25000000      0.00000000</v>
   <v>       0.33333333      0.25000000      0.00000000</v>
   <v>       0.41666667      0.25000000      0.00000000</v>
   <v>       0.50000000      0.25000000      0.00000000</v>
   <v>       0.33333333      0.33333333      0.00000000</v>
   <v>       0.41666667      0.33333333      0.00000000</v>
   <v>       0.50000000      0.33333333      0.00000000</v>
   <v>       0.41666667      0.41666667      0.00000000</v>
   <v>       0.50000000      0.41666667      0.00000000</v>
   <v>       0.50000000      0.50000000      0.00000000</v>
   <v>       0.08333333      0.08333333      0.08333333</v>
   <v>       0.16666667      0.08333333      0.08333333</v>
   <v>       0.25000000      0.08333333      0.08333333</v>
   <v>       0.33333333      0.08333333      0.08333333</v>
   <v>       0.41666667      0.08333333      0.08333333</v>
   <v>       0.50000000      0.08333333      0.08333333</v>
   <v>       0.16666667      0.16666667      0.08333333</v>
   <v>       0.25000000      0.16666667      0.08333333</v>
   <v>       0.33333333      0.16666667      0.08333333</v>
   <v>       0.41666667      0.16666667      0.08333333</v>
   <v>       0.50000000      0.16666667      0.08333333</v>
   <v>       0.25000000      0.25000000      0.08333333</v>
   <v>       0.33333333      0.25000000      0.08333333</v>
   <v>       0.41666667      0.25000000      0.08333333</v>
   <v>       0.50000000      0.25000000      0.08333333</v>
   <v>       0.33333333      0.33333333      0.08333333</v>
   <v>       0.41666667      0.33333333      0.08333333</v>
   <v>       0.50000000      0.33333333      0.08333333</v>
   <v>       0.41666667      0.41666667      0.08333333</v>
   <v>       0.50000000      0.41666667      0.08333333</v>
   <v>       0.50000000      0.50000000      0.08333333</v>
   <v>       0.16666667      0.16666667      0.16666667</v>
   <v>       0.25000000      0.16666667      0.16666667</v>
   <v>       0.33333333      0.16666667      0.16666667</v>
   <v>       0.41666667      0.16666667      0.16666667</v>
   <v>       0.50000000      0.16666667      0.16666667</v>
   <v>       0.25000000      0.25000000      0.16666667</v>
   <v>       0.33333333      0.25000000      0.16666667</v>
   <v>       0.41666667      0.25000000      0.16666667</v>
   <v>       0.50000000      0.25000000      0.16666667</v>
   <v>       0.33333333      0.33333333      0.16666667</v>
   <v>       0.41666667      0.33333333      0.16666667</v>
   <v>       0.50000000      0.33333333      0.16666667</v>
   <v>       0.41666667      0.41666667      0.16666667</v>
   <v>       0.50000000      0.41666667      0.16666667</v>
   <v>       0.50000000      0.50000000      0.16666667</v>
   <v>       0.25000000      0.25000000      0.25000000</v>
   <v>       0.33333333      0.25000000      0.25000000</v>
   <v>       0.41666667      0.25000000      0.25000000</v>
   <v>       0.50000000      0.25000000      0.25000000</v>
   <v>       0.33333333      0.33333333      0.25000000</v>
   <v>       0.41666667      0.33333333      0.25000000</v>
   <v>       0.50000000      0.33333333      0.25000000</v>
   <v>       0.41666667      0.41666667      0.25000000</v>
   <v>       0.50000000      0.41666667      0.25000000</v>
   <v>       0.50000000      0.50000000      0.25000000</v>
   <v>       0.33333333      0.33333333      0.33333333</v>
   <v>       0.41666667      0.33333333      0.33333333</v>
   <v>       0.50000000      0.33333333      0.33333333</v>
   <v>       0.41666667      0.41666667      0.33333333</v>
   <v>       0.50000000      0.41666667      0.33333333</v>
   <v>       0.50000000      0.50000000      0.33333333</v>
   <v>       0.41666667      0.41666667      0.41666667</v>
   <v>       0.50000000      0.41666667      0.41666667</v>
   <v>       0.50000000      0.50000000      0.41666667</v>
   <v>       0.50000000      0.50000000      0.50000000</v>
  </varray>
  <varray name="weights" >
   <v>       0.00057870</v>
   <v>       0.00347222</v>
   <v>       0.00347222</v>
   <v>       0.00347222</v>
   <v>       0.00347222</v>
   <v>       0.00347222</v>
   <v>       0.00173611</v>
   <v>       0.00694444</v>
   <v>       0.01388889</v>
   <v>       0.01388889</v>
   <v>       0.01388889</v>
   <v>       0.01388889</v>
   <v>       0.00694444</v>
   <v>       0.00694444</v>
   <v>       0.01388889</v>
   <v>       0.01388889</v>
   <v>       0.01388889</v>
   <v>       0.00694444</v>
   <v>       0.00694444</v>
   <v>       0.01388889</v>
   <v>       0.01388889</v>
   <v>       0.00694444</v>
   <v>       0.00694444</v>
   <v>       0.01388889</v>
   <v>       0.00694444</v>
   <v>       0.00694444</v>
   <v>       0.00694444</v>
   <v>       0.00173611</v>
   <v>       0.00462963</v>
   <v>       0.01388889</v>
   <v>       0.01388889</v>
   <v>       0.01388889</v>
   <v>       0.01388889</v>
   <v>       0.00694444</v>
   <v>       0.01388889</v>
   <v>       0.02777778</v>
   <v>       0.02777778</v>
   <v>       0.02777778</v>
   <v>       0.01388889</v>
   <v>       0.01388889</v>
   <v>       0.02777778</v>
   <v>       0.02777778</v>
   <v>       0.01388889</v>
   <v>       0.01388889</v>
   <v>       0.02777778</v>
   <v>       0.01388889</v>
   <v>       0.01388889</v>
   <v>       0.01388889</v>
   <v>       0.00347222</v>
   <v>       0.00462963</v>
   <v>       0.01388889</v>
   <v>       0.01388889</v>
   <v>       0.01388889</v>
   <v>       0.00694444</v>
   <v>       0.01388889</v>
   <v>       0.02777778</v>
   <v>       0.02777778</v>
   <v>       0.01388889</v>
   <v>       0.01388889</v>
   <v>       0.02777778</v>
   <v>       0.01388889</v>
   <v>       0.01388889</v>
   <v>       0.01388889</v>
   <v>       0.00347222</v>
   <v>       0.00462963</v>
   <v>       0.01388889</v>
   <v>       0.01388889</v>
   <v>       0.00694444</v>
   <v>       0.01388889</v>
   <v>       0.02777778</v>
   <v>       0.01388889</v>
   <v>       0.01388889</v>
   <v>       0.01388889</v>
   <v>       0.00347222</v>
   <v>       0.00462963</v>
   <v>       0.01388889</v>
   <v>       0.00694444</v>
   <v>       0.01388889</v>
   <v>       0.01388889</v>
   <v>       0.00347222</v>
   <v>       0.00462963</v>
   <v>       0.00694444</v>
   <v>       0.00347222</v>
   <v>       0.00057870</v>
  </varray>
 </kpoints>
 <parameters>
  <separator name="general" >
   <i type="string" name="SYSTEM">unknown system</i>
   <i type="logical" name="LCOMPAT"> F  </i>
  </separator>
  <separator name="electronic" >
   <i type="string" name="PREC">accura</i>
   <i name="ENMAX">    500.00000000</i>
   <i name="ENAUG">    291.05200000</i>
   <i name="EDIFF">      0.00000001</i>
   <i type="int" name="IALGO">    38</i>
   <i type="int" name="IWAVPR">    10</i>
   <i type="int" name="NBANDS">    10</i>
   <i name="NELECT">     12.00000000</i>
   <separator name="electronic smearing" >
    <i type="int" name="ISMEAR">     0</i>
    <i name="SIGMA">      0.01000000</i>
   </separator>
   <separator name="electronic projectors" >
    <i type="logical" name="LREAL"> F  </i>
    <v name="ROPT">      0.00000000</v>
    <i type="int" name="LMAXPAW">  -100</i>
    <i type="int" name="LMAXMIX">     2</i>
   </separator>
   <separator name="electronic startup" >
    <i type="int" name="ISTART">     0</i>
    <i type="int" name="ICHARG">     2</i>
    <i type="int" name="INIWAV">     1</i>
   </separator>
   <separator name="electronic spin" >
    <i type="int" name="ISPIN">     1</i>
    <i type="logical" name="LNONCOLLINEAR"> F  </i>
    <v name="MAGMOM">      1.00000000      1.00000000      1.00000000      1.00000000</v>
    <i name="NUPDOWN">     -1.00000000</i>
    <i type="logical" name="LSORBIT"> F  </i>
    <v name="SAXIS">      0.00000000      0.00000000      1.00000000</v>
    <i type="logical" name="LSPIRAL"> F  </i>
    <v name="QSPIRAL">      0.00000000      0.00000000      0.00000000</v>
    <i type="logical" name="LZEROZ"> F  </i>
   </separator>
   <separator name="electronic exchange-correlation" >
    <i type="string" name="GGA">--</i>
    <i type="int" name="VOSKOWN">     0</i>
    <i type="logical" name="LASPH"> F  </i>
    <i type="logical" name="LMETAGGA"> F  </i>
    <i type="string" name="GGA2">--</i>
   </separator>
   <separator name="electronic convergence" >
    <i type="int" name="NELM">    60</i>
    <i type="int" name="NELMDL">    -5</i>
    <i type="int" name="NELMIN">     2</i>
    <i name="ENINI">    500.00000000</i>
    <separator name="electronic convergence detail" >
     <i type="logical" name="LDIAG"> T  </i>
     <i name="WEIMIN">      0.00000000</i>
     <i name="EBREAK">      0.00000000</i>
     <i name="DEPER">      0.30000000</i>
     <i type="int" name="NRMM">     4</i>
     <i name="TIME">      0.10000000</i>
    </separator>
   </separator>
   <separator name="electronic mixer" >
    <i name="AMIX">      0.40000000</i>
    <i name="BMIX">      1.00000000</i>
    <i name="AMIN">      0.10000000</i>
    <i name="AMIX_MAG">      1.60000000</i>
    <i name="BMIX_MAG">      1.00000000</i>
    <separator name="electronic mixer details" >
     <i type="int" name="IMIX">     4</i>
     <i type="int" name="MAXMIX">   -45</i>
     <i name="WC">    100.00000000</i>
     <i type="int" name="INIMIX">     1</i>
     <i type="int" name="MIXPRE">     1</i>
     <i type="int" name="MREMOVE">     5</i>
    </separator>
   </separator>
   <separator name="electronic dipolcorrection" >
    <i type="int" name="IDIPOL">     0</i>
    <i type="logical" name="LDIPOL"> F  </i>
    <v name="DIPOL">   -100.00000000</v>
    <i name="EFIELD">      0.00000000</i>
   </separator>
  </separator>
  <separator name="grids" >
   <i type="int" name="NGX">    32</i>
   <i type="int" name="NGY">    32</i>
   <i type="int" name="NGZ">    32</i>
   <i type="int" name="NGXF">    64</i>
   <i type="int" name="NGYF">    64</i>
   <i type="int" name="NGZF">    64</i>
   <i type="logical" name="ADDGRID"> F  </i>
  </separator>
  <separator name="ionic" >
   <i type="int" name="NSW">     0</i>
   <i type="int" name="IBRION">    -1</i>
   <i type="int" name="ISIF">     2</i>
   <i name="PSTRESS">      0.00000000</i>
   <i name="EDIFFG">      0.00000010</i>
   <i type="int" name="NFREE">     0</i>
   <i name="POTIM">      0.50000000</i>
   <i name="SMASS">     -3.00000000</i>
  </separator>
  <separator name="ionic md" >
   <i name="TEBEG">      0.00010000</i>
   <i name="TEEND">      0.00010000</i>
   <i type="int" name="NBLOCK">     1</i>
   <i type="int" name="KBLOCK">     1</i>
   <i type="int" name="NPACO">   256</i>
   <i name="APACO">     16.00000000</i>
  </separator>
  <separator name="symmetry" >
   <i type="int" name="ISYM">     2</i>
   <i name="SYMPREC">      0.00001000</i>
  </separator>
  <separator name="dos" >
   <i type="logical" name="LORBIT"> F  </i>
   <v name="RWIGS">     -1.00000000</v>
   <i type="int" name="NEDOS">   301</i>
   <i name="EMIN">     10.00000000</i>
   <i name="EMAX">    -10.00000000</i>
  </separator>
  <separator name="writing" >
   <i type="int" name="NWRITE">     2</i>
   <i type="logical" name="LWAVE"> F  </i>
   <i type="logical" name="LCHARG"> F  </i>
   <i type="logical" name="LPARD"> F  </i>
   <i type="logical" name="LVTOT"> F  </i>
   <i type="logical" name="LELF"> F  </i>
   <i type="logical" name="LOPTICS"> F  </i>
   <i name="STM">      0.00000000</i>
  </separator>
  <separator name="performance" >
   <i type="int" name="NPAR">     8</i>
   <i type="int" name="NSIM">     4</i>
   <i type="int" name="NBLK">   192</i>
   <i type="logical" name="LPLANE"> T  </i>
   <i type="logical" name="LCRITICAL_MEM"> F  </i>
   <i type="logical" name="LSCALAPACK"> F  </i>
   <i type="logical" name="LSCALU"> F  </i>
   <i type="logical" name="LASYNC"> F  </i>
  </separator>
  <separator name="miscellaneous" >
   <i type="int" name="IDIOT">     3</i>
   <i type="logical" name="LMUSIC"> F  </i>
   <v name="POMASS">     26.98200000</v>
   <i type="logical" name="LCORR"> T  </i>
  </separator>
  <i type="logical" name="LREAL_COMPAT"> F  </i>
  <i type="logical" name="GGA_COMPAT"> T  </i>
  <i type="logical" name="LBERRY"> F  </i>
  <i type="int" name="ICORELEVEL">     0</i>
  <i type="logical" name="LDAU"> F  </i>
  <i type="int" name="I_CONSTRAINED_M">     0</i>
 </parameters>
 <atominfo>
  <atoms>       4</atoms>
  <types>       1</types>
  <array name="atoms" >
   <dimension dim="1">ion</dimension>
   <field type="string">element</field>
   <field type="int">atomtype</field>
   <set>
    <rc><c>Al</c><c>   1</c></rc>
    <rc><c>Al</c><c>   1</c></rc>
    <rc><c>Al</c><c>   1</c></rc>
    <rc><c>Al</c><c>   1</c></rc>
   </set>
  </array>
  <array name="atomtypes" >
   <dimension dim="1">type</dimension>
   <field type="int">atomspertype</field>
   <field type="string">element</field>
   <field>mass</field>
   <field>valence</field>
   <field type="string">pseudopotential</field>
   <set>
    <rc><c>   4</c><c>Al</c><c>     26.98200000</c><c>      3.00000000</c><c> PAW_PBE Al 04Jan2001                   </c></rc>
   </set>
  </array>
 </atominfo>
 <structure name="initialpos" >
  <crystal>
   <varray name="basis" >
    <v>       4.19879862      0.00000000      0.00000000</v>
    <v>       0.00000000      4.19879862      0.00000000</v>
    <v>       0.00000000      0.00000000      4.19879862</v>
   </varray>
   <i name="volume">     74.02444139</i>
   <varray name="rec_basis" >
    <v>       0.23816336      0.00000000      0.00000000</v>
    <v>       0.00000000      0.23816336      0.00000000</v>
    <v>       0.00000000      0.00000000      0.23816336</v>
   </varray>
  </crystal>
  <varray name="positions" >
   <v>       0.50000000      0.50000000      0.00000000</v>
   <v>       0.50000000      0.00000000      0.50000000</v>
   <v>       0.00000000      0.50000000      0.50000000</v>
   <v>       0.00000000      0.00000000      0.00000000</v>
  </varray>
 </structure>
 <calculation>
  <scstep>
   <time name="dav">    0.84    0.85</time>
   <time name="total">    0.86    0.87</time>
   <energy>
    <i name="alphaZ">     -0.72598984</i>
    <i name="ewald">   -283.02826687</i>
    <i name="hartreedc">     -0.63577539</i>
    <i name="XCdc">   -105.76608433</i>
    <i name="pawpsdc">    142.21701965</i>
    <i name="pawaedc">    -14.39593217</i>
    <i name="eentropy">     -0.00014209</i>
    <i name="bandstr">     52.43937013</i>
    <i name="atom">    214.15364153</i>
    <i name="e_fr_energy">      4.25784063</i>
    <i name="e_wo_entrp">      4.25798272</i>
    <i name="e_0_energy">      4.25791167</i>
   </energy>
  </scstep>
  <scstep>
   <time name="dav">    1.05    1.05</time>
   <time name="total">    1.06    1.06</time>
   <energy>
    <i name="e_fr_energy">    -14.26625938</i>
    <i name="e_wo_entrp">    -14.26609205</i>
    <i name="e_0_energy">    -14.26617572</i>
   </energy>
  </scstep>
  <scstep>
   <time name="dav">    1.02    1.02</time>
   <time name="total">    1.02    1.02</time>
   <energy>
    <i name="e_fr_energy">    -14.85947233</i>
    <i name="e_wo_entrp">    -14.85933582</i>
    <i name="e_0_energy">    -14.85940408</i>
   </energy>
  </scstep>
  <scstep>
   <time name="dav">    0.97    0.97</time>
   <time name="total">    0.97    0.98</time>
   <energy>
    <i name="e_fr_energy">    -14.86362051</i>
    <i name="e_wo_entrp">    -14.86348339</i>
    <i name="e_0_energy">    -14.86355195</i>
   </energy>
  </scstep>
  <scstep>
   <time name="dav">    1.02    1.03</time>
   <time name="total">    1.07    1.07</time>
   <energy>
    <i name="e_fr_energy">    -14.86367602</i>
    <i name="e_wo_entrp">    -14.86353890</i>
    <i name="e_0_energy">    -14.86360746</i>
   </energy>
  </scstep>
  <scstep>
   <time name="dav">    0.93    0.94</time>
   <time name="total">    1.00    1.00</time>
   <energy>
    <i name="e_fr_energy">    -14.81453206</i>
    <i name="e_wo_entrp">    -14.81440400</i>
    <i name="e_0_energy">    -14.81446803</i>
   </energy>
  </scstep>
  <scstep>
   <time name="dav">    0.91    0.91</time>
   <time name="total">    0.97    0.97</time>
   <energy>
    <i name="e_fr_energy">    -14.77912281</i>
    <i name="e_wo_entrp">    -14.77902580</i>
    <i name="e_0_energy">    -14.77907431</i>
   </energy>
  </scstep>
  <scstep>
   <time name="dav">    1.00    1.00</time>
   <time name="total">    1.06    1.06</time>
   <energy>
    <i name="e_fr_energy">    -14.77911389</i>
    <i name="e_wo_entrp">    -14.77901741</i>
    <i name="e_0_energy">    -14.77906565</i>
   </energy>
  </scstep>
  <scstep>
   <time name="dav">    1.00    1.00</time>
   <time name="total">    1.06    1.06</time>
   <energy>
    <i name="e_fr_energy">    -14.77911622</i>
    <i name="e_wo_entrp">    -14.77902029</i>
    <i name="e_0_energy">    -14.77906826</i>
   </energy>
  </scstep>
  <scstep>
   <time name="dav">    1.03    1.03</time>
   <time name="total">    1.09    1.09</time>
   <energy>
    <i name="e_fr_energy">    -14.77911496</i>
    <i name="e_wo_entrp">    -14.77901906</i>
    <i name="e_0_energy">    -14.77906701</i>
   </energy>
  </scstep>
  <scstep>
   <time name="dav">    0.78    0.78</time>
   <time name="total">    0.84    0.84</time>
   <energy>
    <i name="e_fr_energy">    -14.77911481</i>
    <i name="e_wo_entrp">    -14.77901892</i>
    <i name="e_0_energy">    -14.77906687</i>
   </energy>
  </scstep>
  <scstep>
   <time name="dav">    0.72    0.72</time>
   <time name="total">    0.78    0.78</time>
   <energy>
    <i name="e_fr_energy">    -14.77911485</i>
    <i name="e_wo_entrp">    -14.77901895</i>
    <i name="e_0_energy">    -14.77906690</i>
   </energy>
  </scstep>
  <scstep>
   <time name="dav">    0.62    0.62</time>
   <time name="total">    0.64    0.64</time>
   <energy>
    <i name="alphaZ">     -0.72598984</i>
    <i name="ewald">   -283.02826687</i>
    <i name="hartreedc">     -0.39889606</i>
    <i name="XCdc">   -105.43148913</i>
    <i name="pawpsdc">    141.51756469</i>
    <i name="pawaedc">    -13.68569923</i>
    <i name="eentropy">     -0.00009590</i>
    <i name="bandstr">     32.82011594</i>
    <i name="atom">    214.15364153</i>
    <i name="e_fr_energy">    -14.77911485</i>
    <i name="e_wo_entrp">    -14.77901895</i>
    <i name="e_0_energy">    -14.77906690</i>
   </energy>
  </scstep>
  <structure>
   <crystal>
    <varray name="basis" >
     <v>       4.19879862      0.00000000      0.00000000</v>
     <v>       0.00000000      4.19879862      0.00000000</v>
     <v>       0.00000000      0.00000000      4.19879862</v>
    </varray>
    <i name="volume">     74.02444139</i>
    <varray name="rec_basis" >
     <v>       0.23816336      0.00000000      0.00000000</v>
     <v>       0.00000000      0.23816336      0.00000000</v>
     <v>       0.00000000      0.00000000      0.23816336</v>
    </varray>
   </crystal>
   <varray name="positions" >
    <v>       0.50000000      0.50000000      0.00000000</v>
    <v>       0.50000000      0.00000000      0.50000000</v>
    <v>       0.00000000      0.50000000      0.50000000</v>
    <v>       0.00000000      0.00000000      0.00000000</v>
   </varray>
  </structure>
  <varray name="forces" >
   <v>       0.00000000     -0.00000000      0.00000000</v>
   <v>       0.00000000     -0.00000000      0.00000000</v>
   <v>       0.00000000      0.00000000      0.00000000</v>
   <v>       0.00000000      0.00000000      0.00000000</v>
  </varray>
  <varray name="stress" >
   <v>     -67.55147436     -0.00000000     -0.00000000</v>
   <v>       0.00000000    -67.55147436     -0.00000000</v>
   <v>      -0.00000000      0.00000000    -67.55147436</v>
  </varray>
  <energy>
   <i name="e_fr_energy">    -14.77911485</i>
   <i name="e_wo_entrp">    -14.77906690</i>
   <i name="e_0_energy">     -0.00009590</i>
  </energy>
  <eigenvalues>
   <array>
    <dimension dim="1">band</dimension>
    <dimension dim="2">kpoint</dimension>
    <dimension dim="3">spin</dimension>
    <field>eigene</field>
    <field>occ</field>
    <set>
     <set comment="spin 1">
      <set comment="kpoint 1">
       <r>  -3.5118  1.0000</r>
       <r>   4.2067  1.0000</r>
       <r>   4.2067  1.0000</r>
       <r>   4.2067  1.0000</r>
       <r>   5.2482  1.0000</r>
       <r>   5.2482  1.0000</r>
       <r>   5.2482  1.0000</r>
       <r>  11.9409  0.0000</r>
       <r>  11.9409  0.0000</r>
       <r>  11.9409  0.0000</r>
       <r>  11.9409  0.0000</r>
       <r>  11.9409  0.0000</r>
       <r>  11.9409  0.0000</r>
       <r>  12.0802  0.0000</r>
       <r>  12.0802  0.0000</r>
       <r>  12.0802  0.0000</r>
      </set>
      <set comment="kpoint 2">
       <r>  -3.4535  1.0000</r>
       <r>   3.3395  1.0000</r>
       <r>   4.2607  1.0000</r>
       <r>   4.2607  1.0000</r>
       <r>   5.3056  1.0000</r>
       <r>   5.3056  1.0000</r>
       <r>   6.2178  1.0000</r>
       <r>  10.7607  0.0000</r>
       <r>  10.7607  0.0000</r>
       <r>  11.5050  0.0000</r>
       <r>  11.5050  0.0000</r>
       <r>  11.9914  0.0000</r>
       <r>  11.9914  0.0000</r>
       <r>  12.1377  0.0000</r>
       <r>  13.3680  0.0000</r>
       <r>  13.3680  0.0000</r>
      </set>
      <set comment="kpoint 3">
       <r>  -3.2787  1.0000</r>
       <r>   2.2011  1.0000</r>
       <r>   4.4227  1.0000</r>
       <r>   4.4227  1.0000</r>
       <r>   5.4775  1.0000</r>
       <r>   5.4775  1.0000</r>
       <r>   7.6632  0.0000</r>
       <r>   9.6221  0.0000</r>
       <r>   9.6221  0.0000</r>
       <r>  10.6337  0.0000</r>
       <r>  10.6337  0.0000</r>
       <r>  12.1430  0.0000</r>
       <r>  12.1430  0.0000</r>
       <r>  12.3099  0.0000</r>
       <r>  14.8291  0.0000</r>
       <r>  14.8291  0.0000</r>
      </set>
      <set comment="kpoint 4">
       <r>  -2.9878  1.0000</r>
       <r>   1.1384  1.0000</r>
       <r>   4.6928  1.0000</r>
       <r>   4.6928  1.0000</r>
       <r>   5.7629  1.0000</r>
       <r>   5.7629  1.0000</r>
       <r>   8.5916  0.0000</r>
       <r>   8.5916  0.0000</r>
       <r>   9.2365  0.0000</r>
       <r>   9.7005  0.0000</r>
       <r>   9.7005  0.0000</r>
       <r>  12.3956  0.0000</r>
       <r>  12.3956  0.0000</r>
       <r>  12.5965  0.0000</r>
       <r>  15.4053  0.0000</r>
       <r>  16.0269  0.0000</r>
      </set>
      <set comment="kpoint 5">
       <r>  -2.5815  1.0000</r>
       <r>   0.1758  1.0000</r>
       <r>   5.0712  1.0000</r>
       <r>   5.0712  1.0000</r>
       <r>   6.1602  1.0000</r>
       <r>   6.1602  1.0000</r>
       <r>   7.6699  0.0000</r>
       <r>   7.6699  0.0000</r>
       <r>   8.8121  0.0000</r>
       <r>   8.8121  0.0000</r>
       <r>  10.9105  0.0000</r>
       <r>  12.7494  0.0000</r>
       <r>  12.7494  0.0000</r>
       <r>  12.9967  0.0000</r>
       <r>  15.1728  0.0000</r>
       <r>  15.1728  0.0000</r>
      </set>
      <set comment="kpoint 6">
       <r>  -2.0606  1.0000</r>
       <r>  -0.6802  1.0000</r>
       <r>   5.5579  1.0000</r>
       <r>   5.5579  1.0000</r>
       <r>   6.6662  1.0000</r>
       <r>   6.6662  1.0000</r>
       <r>   6.8571  1.0000</r>
       <r>   6.8571  1.0000</r>
       <r>   8.0040  0.0000</r>
       <r>   8.0040  0.0000</r>
       <r>  12.6735  0.0000</r>
       <r>  13.2043  0.0000</r>
       <r>  13.2043  0.0000</r>
       <r>  13.5094  0.0000</r>
       <r>  14.4166  0.0000</r>
       <r>  14.4166  0.0000</r>
      </set>
      <set comment="kpoint 7">
       <r>  -1.4263  1.0000</r>
       <r>  -1.4263  1.0000</r>
       <r>   6.1531  1.0000</r>
       <r>   6.1531  1.0000</r>
       <r>   6.1531  1.0000</r>
       <r>   6.1531  1.0000</r>
       <r>   7.2149  0.0000</r>
       <r>   7.2149  0.0000</r>
       <r>   7.3536  0.0000</r>
       <r>   7.3536  0.0000</r>
       <r>  13.7602  0.0000</r>
       <r>  13.7602  0.0000</r>
       <r>  13.7602  0.0000</r>
       <r>  13.7602  0.0000</r>
       <r>  14.1323  0.0000</r>
       <r>  14.1323  0.0000</r>
      </set>
      <set comment="kpoint 8">
       <r>  -3.3952  1.0000</r>
       <r>   3.3950  1.0000</r>
       <r>   3.3950  1.0000</r>
       <r>   4.3147  1.0000</r>
       <r>   5.3630  1.0000</r>
       <r>   6.2737  1.0000</r>
       <r>   6.2737  1.0000</r>
       <r>   9.8979  0.0000</r>
       <r>  10.8146  0.0000</r>
       <r>  10.8146  0.0000</r>
       <r>  11.5564  0.0000</r>
       <r>  11.5564  0.0000</r>
       <r>  12.0422  0.0000</r>
       <r>  13.2794  0.0000</r>
       <r>  13.4220  0.0000</r>
       <r>  13.4220  0.0000</r>
      </set>
      <set comment="kpoint 9">
       <r>  -3.2205  1.0000</r>
       <r>   2.2572  1.0000</r>
       <r>   3.5613  1.0000</r>
       <r>   4.4767  1.0000</r>
       <r>   5.5347  1.0000</r>
       <r>   6.4411  1.0000</r>
       <r>   7.7183  0.0000</r>
       <r>   8.8040  0.0000</r>
       <r>   9.6762  0.0000</r>
       <r>  10.6865  0.0000</r>
       <r>  10.9762  0.0000</r>
       <r>  11.4904  0.0000</r>
       <r>  11.7106  0.0000</r>
       <r>  13.5840  0.0000</r>
       <r>  14.2995  0.0000</r>
       <r>  14.8827  0.0000</r>
      </set>
      <set comment="kpoint 10">
       <r>  -2.9297  1.0000</r>
       <r>   1.1949  1.0000</r>
       <r>   3.8381  1.0000</r>
       <r>   4.7468  1.0000</r>
       <r>   5.8198  1.0000</r>
       <r>   6.7194  1.0000</r>
       <r>   7.7842  0.0000</r>
       <r>   8.6457  0.0000</r>
       <r>   9.2907  0.0000</r>
       <r>   9.7543  0.0000</r>
       <r>  10.5902  0.0000</r>
       <r>  11.2453  0.0000</r>
       <r>  11.9674  0.0000</r>
       <r>  13.8538  0.0000</r>
       <r>  15.0698  0.0000</r>
       <r>  15.5999  0.0000</r>
      </set>
      <set comment="kpoint 11">
       <r>  -2.5235  1.0000</r>
       <r>   0.2327  1.0000</r>
       <r>   4.2252  1.0000</r>
       <r>   5.1252  1.0000</r>
       <r>   6.2162  1.0000</r>
       <r>   6.8621  1.0000</r>
       <r>   7.1072  0.0000</r>
       <r>   7.7240  0.0000</r>
       <r>   8.8671  0.0000</r>
       <r>   9.7140  0.0000</r>
       <r>  10.9638  0.0000</r>
       <r>  11.6213  0.0000</r>
       <r>  12.3262  0.0000</r>
       <r>  14.1776  0.0000</r>
       <r>  14.2312  0.0000</r>
       <r>  14.7584  0.0000</r>
      </set>
      <set comment="kpoint 12">
       <r>  -2.0028  1.0000</r>
       <r>  -0.6229  1.0000</r>
       <r>   4.7218  1.0000</r>
       <r>   5.6120  1.0000</r>
       <r>   6.0398  1.0000</r>
       <r>   6.7256  1.0000</r>
       <r>   6.9112  0.0018</r>
       <r>   7.5981  0.0000</r>
       <r>   8.0641  0.0000</r>
       <r>   8.9158  0.0000</r>
       <r>  12.1038  0.0000</r>
       <r>  12.7256  0.0000</r>
       <r>  12.7864  0.0000</r>
       <r>  13.3837  0.0000</r>
       <r>  14.0050  0.0000</r>
       <r>  14.7153  0.0000</r>
      </set>
      <set comment="kpoint 13">
       <r>  -1.3688  1.0000</r>
       <r>  -1.3688  1.0000</r>
       <r>   5.3273  1.0000</r>
       <r>   5.3273  1.0000</r>
       <r>   6.2072  1.0000</r>
       <r>   6.2072  1.0000</r>
       <r>   7.3360  0.0000</r>
       <r>   7.3360  0.0000</r>
       <r>   8.2138  0.0000</r>
       <r>   8.2138  0.0000</r>
       <r>  12.6917  0.0000</r>
       <r>  12.6917  0.0000</r>
       <r>  13.3466  0.0000</r>
       <r>  13.3466  0.0000</r>
       <r>  14.5604  0.0000</r>
       <r>  14.5604  0.0000</r>
      </set>
      <set comment="kpoint 14">
       <r>  -3.0460  1.0000</r>
       <r>   2.4255  1.0000</r>
       <r>   2.4255  1.0000</r>
       <r>   4.6388  1.0000</r>
       <r>   5.7059  1.0000</r>
       <r>   7.7118  0.0000</r>
       <r>   7.8831  0.0000</r>
       <r>   7.8831  0.0000</r>
       <r>   9.8382  0.0000</r>
       <r>   9.8382  0.0000</r>
       <r>  10.8444  0.0000</r>
       <r>  10.8444  0.0000</r>
       <r>  12.3464  0.0000</r>
       <r>  13.8620  0.0000</r>
       <r>  14.9693  0.0000</r>
       <r>  15.0436  0.0000</r>
      </set>
      <set comment="kpoint 15">
       <r>  -2.7555  1.0000</r>
       <r>   1.3645  1.0000</r>
       <r>   2.7057  1.0000</r>
       <r>   4.9090  1.0000</r>
       <r>   5.9898  1.0000</r>
       <r>   6.6881  1.0000</r>
       <r>   8.1568  0.0000</r>
       <r>   8.8080  0.0000</r>
       <r>   9.4529  0.0000</r>
       <r>   9.9156  0.0000</r>
       <r>  10.1082  0.0000</r>
       <r>  11.1072  0.0000</r>
       <r>  11.8941  0.0000</r>
       <r>  13.9677  0.0000</r>
       <r>  14.7663  0.0000</r>
       <r>  14.8785  0.0000</r>
      </set>
      <set comment="kpoint 16">
       <r>  -2.3498  1.0000</r>
       <r>   0.4034  1.0000</r>
       <r>   3.0971  1.0000</r>
       <r>   5.2874  1.0000</r>
       <r>   5.7561  1.0000</r>
       <r>   6.3890  1.0000</r>
       <r>   7.8864  0.0000</r>
       <r>   8.5345  0.0000</r>
       <r>   9.0350  0.0000</r>
       <r>  10.4859  0.0000</r>
       <r>  11.0879  0.0000</r>
       <r>  11.1219  0.0000</r>
       <r>  11.4746  0.0000</r>
       <r>  13.0631  0.0000</r>
       <r>  13.9309  0.0000</r>
       <r>  15.6851  0.0000</r>
      </set>
      <set comment="kpoint 17">
       <r>  -1.8297  1.0000</r>
       <r>  -0.4513  1.0000</r>
       <r>   3.5992  1.0000</r>
       <r>   4.9308  1.0000</r>
       <r>   5.7742  1.0000</r>
       <r>   6.8939  0.3243</r>
       <r>   7.0735  0.0000</r>
       <r>   8.2165  0.0000</r>
       <r>   9.0351  0.0000</r>
       <r>  10.3146  0.0000</r>
       <r>  10.9710  0.0000</r>
       <r>  11.9412  0.0000</r>
       <r>  12.2607  0.0000</r>
       <r>  12.8815  0.0000</r>
       <r>  13.1751  0.0000</r>
       <r>  16.1633  0.0000</r>
      </set>
      <set comment="kpoint 18">
       <r>  -1.1963  1.0000</r>
       <r>  -1.1963  1.0000</r>
       <r>   4.2109  1.0000</r>
       <r>   4.2109  1.0000</r>
       <r>   6.3695  1.0000</r>
       <r>   6.3695  1.0000</r>
       <r>   7.5055  0.0000</r>
       <r>   7.5055  0.0000</r>
       <r>   9.6251  0.0000</r>
       <r>   9.6251  0.0000</r>
       <r>  11.5629  0.0000</r>
       <r>  11.5629  0.0000</r>
       <r>  12.5100  0.0000</r>
       <r>  12.5100  0.0000</r>
       <r>  14.7109  0.0000</r>
       <r>  14.7109  0.0000</r>
      </set>
      <set comment="kpoint 19">
       <r>  -2.4657  1.0000</r>
       <r>   1.6469  1.0000</r>
       <r>   1.6469  1.0000</r>
       <r>   5.1792  1.0000</r>
       <r>   5.6546  1.0000</r>
       <r>   6.2761  1.0000</r>
       <r>   9.0783  0.0000</r>
       <r>   9.0783  0.0000</r>
       <r>   9.7195  0.0000</r>
       <r>   9.7195  0.0000</r>
       <r>  10.1862  0.0000</r>
       <r>  10.1862  0.0000</r>
       <r>  12.8532  0.0000</r>
       <r>  12.9554  0.0000</r>
       <r>  13.8822  0.0000</r>
       <r>  14.4875  0.0000</r>
      </set>
      <set comment="kpoint 20">
       <r>  -2.0607  1.0000</r>
       <r>   0.6875  1.0000</r>
       <r>   2.0414  1.0000</r>
       <r>   4.7203  1.0000</r>
       <r>   5.5577  1.0000</r>
       <r>   6.6701  1.0000</r>
       <r>   8.1569  0.0000</r>
       <r>   9.2959  0.0000</r>
       <r>   9.4567  0.0000</r>
       <r>  10.1047  0.0000</r>
       <r>  10.5523  0.0000</r>
       <r>  11.3907  0.0000</r>
       <r>  12.0441  0.0000</r>
       <r>  12.5179  0.0000</r>
       <r>  13.0433  0.0000</r>
       <r>  15.5735  0.0000</r>
      </set>
      <set comment="kpoint 21">
       <r>  -1.5415  1.0000</r>
       <r>  -0.1656  1.0000</r>
       <r>   2.5472  1.0000</r>
       <r>   3.8885  1.0000</r>
       <r>   6.0446  1.0000</r>
       <r>   7.1739  0.0000</r>
       <r>   7.3441  0.0000</r>
       <r>   8.4940  0.0000</r>
       <r>   9.9429  0.0000</r>
       <r>  10.5830  0.0000</r>
       <r>  11.0299  0.0000</r>
       <r>  11.2373  0.0000</r>
       <r>  11.8233  0.0000</r>
       <r>  12.2804  0.0000</r>
       <r>  13.1388  0.0000</r>
       <r>  16.7925  0.0000</r>
      </set>
      <set comment="kpoint 22">
       <r>  -0.9093  1.0000</r>
       <r>  -0.9093  1.0000</r>
       <r>   3.1634  1.0000</r>
       <r>   3.1634  1.0000</r>
       <r>   6.6400  1.0000</r>
       <r>   6.6400  1.0000</r>
       <r>   7.7836  0.0000</r>
       <r>   7.7836  0.0000</r>
       <r>  10.5366  0.0000</r>
       <r>  10.5366  0.0000</r>
       <r>  11.1608  0.0000</r>
       <r>  11.1608  0.0000</r>
       <r>  11.6070  0.0000</r>
       <r>  11.6070  0.0000</r>
       <r>  14.9543  0.0000</r>
       <r>  14.9543  0.0000</r>
      </set>
      <set comment="kpoint 23">
       <r>  -1.6568  1.0000</r>
       <r>   1.0845  1.0000</r>
       <r>   1.0845  1.0000</r>
       <r>   3.7798  1.0000</r>
       <r>   5.9363  1.0000</r>
       <r>   7.0628  0.0000</r>
       <r>   8.5355  0.0000</r>
       <r>   8.5355  0.0000</r>
       <r>   9.6764  0.0000</r>
       <r>   9.6764  0.0000</r>
       <r>  11.1287  0.0000</r>
       <r>  11.7582  0.0000</r>
       <r>  11.7582  0.0000</r>
       <r>  12.1972  0.0000</r>
       <r>  13.5622  0.0000</r>
       <r>  15.2925  0.0000</r>
      </set>
      <set comment="kpoint 24">
       <r>  -1.1389  1.0000</r>
       <r>   0.2335  1.0000</r>
       <r>   1.5935  1.0000</r>
       <r>   2.9429  1.0000</r>
       <r>   6.4233  1.0000</r>
       <r>   7.5640  0.0000</r>
       <r>   7.7229  0.0000</r>
       <r>   8.8774  0.0000</r>
       <r>   9.0223  0.0000</r>
       <r>  10.1598  0.0000</r>
       <r>  10.3193  0.0000</r>
       <r>  11.4262  0.0000</r>
       <r>  12.2237  0.0000</r>
       <r>  13.3498  0.0000</r>
       <r>  13.4923  0.0000</r>
       <r>  16.4520  0.0000</r>
      </set>
      <set comment="kpoint 25">
       <r>  -0.5083  1.0000</r>
       <r>  -0.5083  1.0000</r>
       <r>   2.2135  1.0000</r>
       <r>   2.2135  1.0000</r>
       <r>   7.0188  0.0000</r>
       <r>   7.0188  0.0000</r>
       <r>   8.1705  0.0000</r>
       <r>   8.1705  0.0000</r>
       <r>   9.6170  0.0000</r>
       <r>   9.6170  0.0000</r>
       <r>  10.7445  0.0000</r>
       <r>  10.7445  0.0000</r>
       <r>  12.7727  0.0000</r>
       <r>  12.7727  0.0000</r>
       <r>  15.2754  0.0000</r>
       <r>  15.2754  0.0000</r>
      </set>
      <set comment="kpoint 26">
       <r>  -0.6228  1.0000</r>
       <r>   0.7452  1.0000</r>
       <r>   0.7452  1.0000</r>
       <r>   2.1018  1.0000</r>
       <r>   6.9104  0.0027</r>
       <r>   8.0619  0.0000</r>
       <r>   8.2099  0.0000</r>
       <r>   8.2099  0.0000</r>
       <r>   9.3662  0.0000</r>
       <r>   9.3662  0.0000</r>
       <r>   9.5084  0.0000</r>
       <r>  10.6469  0.0000</r>
       <r>  13.9269  0.0000</r>
       <r>  13.9269  0.0000</r>
       <r>  14.4718  0.0000</r>
       <r>  16.2926  0.0000</r>
      </set>
      <set comment="kpoint 27">
       <r>   0.0058  1.0000</r>
       <r>   0.0058  1.0000</r>
       <r>   1.3685  1.0000</r>
       <r>   1.3685  1.0000</r>
       <r>   7.5059  0.0000</r>
       <r>   7.5059  0.0000</r>
       <r>   8.6643  0.0000</r>
       <r>   8.6643  0.0000</r>
       <r>   8.8051  0.0000</r>
       <r>   8.8051  0.0000</r>
       <r>   9.9576  0.0000</r>
       <r>   9.9576  0.0000</r>
       <r>  14.3840  0.0000</r>
       <r>  14.3840  0.0000</r>
       <r>  15.6123  0.0000</r>
       <r>  15.6123  0.0000</r>
      </set>
      <set comment="kpoint 28">
       <r>   0.6319  1.0000</r>
       <r>   0.6319  1.0000</r>
       <r>   0.6319  1.0000</r>
       <r>   0.6319  1.0000</r>
       <r>   8.1013  0.0000</r>
       <r>   8.1013  0.0000</r>
       <r>   8.1013  0.0000</r>
       <r>   8.1013  0.0000</r>
       <r>   9.2615  0.0000</r>
       <r>   9.2615  0.0000</r>
       <r>   9.2615  0.0000</r>
       <r>   9.2615  0.0000</r>
       <r>  15.5772  0.0000</r>
       <r>  15.5772  0.0000</r>
       <r>  15.5772  0.0000</r>
       <r>  15.5772  0.0000</r>
      </set>
      <set comment="kpoint 29">
       <r>  -3.3370  1.0000</r>
       <r>   3.4504  1.0000</r>
       <r>   3.4504  1.0000</r>
       <r>   3.4504  1.0000</r>
       <r>   6.3296  1.0000</r>
       <r>   6.3296  1.0000</r>
       <r>   6.3296  1.0000</r>
       <r>   9.9518  0.0000</r>
       <r>   9.9518  0.0000</r>
       <r>   9.9518  0.0000</r>
       <r>  12.0928  0.0000</r>
       <r>  12.0928  0.0000</r>
       <r>  12.0928  0.0000</r>
       <r>  13.3349  0.0000</r>
       <r>  13.3349  0.0000</r>
       <r>  13.3349  0.0000</r>
      </set>
      <set comment="kpoint 30">
       <r>  -3.1623  1.0000</r>
       <r>   2.3134  1.0000</r>
       <r>   3.6167  1.0000</r>
       <r>   3.6167  1.0000</r>
       <r>   6.4968  1.0000</r>
       <r>   6.4968  1.0000</r>
       <r>   7.7732  0.0000</r>
       <r>   8.8582  0.0000</r>
       <r>   8.8582  0.0000</r>
       <r>  10.1133  0.0000</r>
       <r>  11.5425  0.0000</r>
       <r>  11.5425  0.0000</r>
       <r>  12.2444  0.0000</r>
       <r>  13.5009  0.0000</r>
       <r>  14.3536  0.0000</r>
       <r>  14.3536  0.0000</r>
      </set>
      <set comment="kpoint 31">
       <r>  -2.8716  1.0000</r>
       <r>   1.2515  1.0000</r>
       <r>   3.8935  1.0000</r>
       <r>   3.8935  1.0000</r>
       <r>   6.7747  1.0000</r>
       <r>   6.7747  1.0000</r>
       <r>   7.8390  0.0000</r>
       <r>   7.8390  0.0000</r>
       <r>   9.3447  0.0000</r>
       <r>  10.3824  0.0000</r>
       <r>  10.6434  0.0000</r>
       <r>  10.6434  0.0000</r>
       <r>  12.4972  0.0000</r>
       <r>  13.7768  0.0000</r>
       <r>  14.1952  0.0000</r>
       <r>  15.8309  0.0000</r>
      </set>
      <set comment="kpoint 32">
       <r>  -2.4656  1.0000</r>
       <r>   0.2896  1.0000</r>
       <r>   4.2804  1.0000</r>
       <r>   4.2804  1.0000</r>
       <r>   6.9119  0.0014</r>
       <r>   6.9119  0.0014</r>
       <r>   7.1672  0.0000</r>
       <r>   7.1672  0.0000</r>
       <r>   9.7680  0.0000</r>
       <r>   9.7680  0.0000</r>
       <r>  10.7565  0.0000</r>
       <r>  11.0185  0.0000</r>
       <r>  12.8511  0.0000</r>
       <r>  13.3081  0.0000</r>
       <r>  14.1610  0.0000</r>
       <r>  15.2748  0.0000</r>
      </set>
      <set comment="kpoint 33">
       <r>  -1.9451  1.0000</r>
       <r>  -0.5657  1.0000</r>
       <r>   4.7770  1.0000</r>
       <r>   4.7770  1.0000</r>
       <r>   6.0954  1.0000</r>
       <r>   6.0954  1.0000</r>
       <r>   7.6600  0.0000</r>
       <r>   7.6600  0.0000</r>
       <r>   8.9708  0.0000</r>
       <r>   8.9708  0.0000</r>
       <r>  11.2395  0.0000</r>
       <r>  12.5170  0.0000</r>
       <r>  12.7778  0.0000</r>
       <r>  13.3061  0.0000</r>
       <r>  14.5186  0.0000</r>
       <r>  14.6515  0.0000</r>
      </set>
      <set comment="kpoint 34">
       <r>  -1.3113  1.0000</r>
       <r>  -1.3113  1.0000</r>
       <r>   5.3741  1.0000</r>
       <r>   5.3741  1.0000</r>
       <r>   5.3906  1.0000</r>
       <r>   5.3906  1.0000</r>
       <r>   8.2109  0.0000</r>
       <r>   8.2109  0.0000</r>
       <r>   8.3181  0.0000</r>
       <r>   8.3181  0.0000</r>
       <r>  11.8266  0.0000</r>
       <r>  11.8266  0.0000</r>
       <r>  13.8621  0.0000</r>
       <r>  13.8621  0.0000</r>
       <r>  14.6063  0.0000</r>
       <r>  14.6063  0.0000</r>
      </set>
      <set comment="kpoint 35">
       <r>  -2.9878  1.0000</r>
       <r>   2.4816  1.0000</r>
       <r>   2.4816  1.0000</r>
       <r>   3.7828  1.0000</r>
       <r>   6.6636  1.0000</r>
       <r>   7.7667  0.0000</r>
       <r>   7.9377  0.0000</r>
       <r>   7.9377  0.0000</r>
       <r>   9.0211  0.0000</r>
       <r>   9.0211  0.0000</r>
       <r>  11.6988  0.0000</r>
       <r>  11.6988  0.0000</r>
       <r>  12.3969  0.0000</r>
       <r>  13.9174  0.0000</r>
       <r>  14.1171  0.0000</r>
       <r>  14.5155  0.0000</r>
      </set>
      <set comment="kpoint 36">
       <r>  -2.6975  1.0000</r>
       <r>   1.4210  1.0000</r>
       <r>   2.7616  1.0000</r>
       <r>   4.0594  1.0000</r>
       <r>   6.7367  1.0000</r>
       <r>   6.9474  0.0000</r>
       <r>   7.9968  0.0000</r>
       <r>   8.2171  0.0000</r>
       <r>   9.2871  0.0000</r>
       <r>   9.5114  0.0000</r>
       <r>  10.8029  0.0000</r>
       <r>  11.9462  0.0000</r>
       <r>  11.9588  0.0000</r>
       <r>  13.1325  0.0000</r>
       <r>  14.7843  0.0000</r>
       <r>  14.9320  0.0000</r>
      </set>
      <set comment="kpoint 37">
       <r>  -2.2919  1.0000</r>
       <r>   0.4603  1.0000</r>
       <r>   3.1530  1.0000</r>
       <r>   4.4461  1.0000</r>
       <r>   5.8120  1.0000</r>
       <r>   7.0785  0.0000</r>
       <r>   7.3308  0.0000</r>
       <r>   8.5950  0.0000</r>
       <r>   9.6683  0.0000</r>
       <r>   9.9299  0.0000</r>
       <r>  11.1409  0.0000</r>
       <r>  11.1774  0.0000</r>
       <r>  12.2373  0.0000</r>
       <r>  12.3220  0.0000</r>
       <r>  14.7753  0.0000</r>
       <r>  15.1585  0.0000</r>
      </set>
      <set comment="kpoint 38">
       <r>  -1.7720  1.0000</r>
       <r>  -0.3941  1.0000</r>
       <r>   3.6549  1.0000</r>
       <r>   4.9419  1.0000</r>
       <r>   4.9866  1.0000</r>
       <r>   6.2600  1.0000</r>
       <r>   7.8262  0.0000</r>
       <r>   9.0542  0.0000</r>
       <r>   9.1627  0.0000</r>
       <r>  10.1536  0.0000</r>
       <r>  10.3683  0.0000</r>
       <r>  11.4399  0.0000</r>
       <r>  12.7873  0.0000</r>
       <r>  12.9336  0.0000</r>
       <r>  14.0175  0.0000</r>
       <r>  15.6355  0.0000</r>
      </set>
      <set comment="kpoint 39">
       <r>  -1.1389  1.0000</r>
       <r>  -1.1389  1.0000</r>
       <r>   4.2664  1.0000</r>
       <r>   4.2664  1.0000</r>
       <r>   5.5473  1.0000</r>
       <r>   5.5473  1.0000</r>
       <r>   8.4266  0.0000</r>
       <r>   8.4266  0.0000</r>
       <r>   9.6796  0.0000</r>
       <r>   9.6796  0.0000</r>
       <r>  10.7446  0.0000</r>
       <r>  10.7446  0.0000</r>
       <r>  13.3533  0.0000</r>
       <r>  13.3533  0.0000</r>
       <r>  14.7597  0.0000</r>
       <r>  14.7597  0.0000</r>
      </set>
      <set comment="kpoint 40">
       <r>  -2.4077  1.0000</r>
       <r>   1.7033  1.0000</r>
       <r>   1.7033  1.0000</r>
       <r>   4.3357  1.0000</r>
       <r>   5.7104  1.0000</r>
       <r>   7.2205  0.0000</r>
       <r>   8.2724  0.0000</r>
       <r>   8.2724  0.0000</r>
       <r>   9.7782  0.0000</r>
       <r>   9.7782  0.0000</r>
       <r>  11.0681  0.0000</r>
       <r>  11.0681  0.0000</r>
       <r>  12.1389  0.0000</r>
       <r>  12.9038  0.0000</r>
       <r>  14.5419  0.0000</r>
       <r>  14.7561  0.0000</r>
      </set>
      <set comment="kpoint 41">
       <r>  -2.0029  1.0000</r>
       <r>   0.7443  1.0000</r>
       <r>   2.0976  1.0000</r>
       <r>   4.7219  1.0000</r>
       <r>   4.7758  1.0000</r>
       <r>   7.3517  0.0000</r>
       <r>   7.6069  0.0000</r>
       <r>   8.6527  0.0000</r>
       <r>  10.1310  0.0000</r>
       <r>  10.2211  0.0000</r>
       <r>  11.2369  0.0000</r>
       <r>  11.4173  0.0000</r>
       <r>  11.4623  0.0000</r>
       <r>  12.5698  0.0000</r>
       <r>  13.9185  0.0000</r>
       <r>  15.6258  0.0000</r>
      </set>
      <set comment="kpoint 42">
       <r>  -1.4840  1.0000</r>
       <r>  -0.1086  1.0000</r>
       <r>   2.6033  1.0000</r>
       <r>   3.9442  1.0000</r>
       <r>   5.2176  1.0000</r>
       <r>   6.5338  1.0000</r>
       <r>   8.1013  0.0000</r>
       <r>   9.1404  0.0000</r>
       <r>   9.4009  0.0000</r>
       <r>  10.4342  0.0000</r>
       <r>  10.6369  0.0000</r>
       <r>  11.8760  0.0000</r>
       <r>  11.9102  0.0000</r>
       <r>  13.1562  0.0000</r>
       <r>  13.1907  0.0000</r>
       <r>  16.8318  0.0000</r>
      </set>
      <set comment="kpoint 43">
       <r>  -0.8520  1.0000</r>
       <r>  -0.8520  1.0000</r>
       <r>   3.2193  1.0000</r>
       <r>   3.2193  1.0000</r>
       <r>   5.8219  1.0000</r>
       <r>   5.8219  1.0000</r>
       <r>   8.7008  0.0000</r>
       <r>   8.7008  0.0000</r>
       <r>   9.7347  0.0000</r>
       <r>   9.7347  0.0000</r>
       <r>  11.2141  0.0000</r>
       <r>  11.2141  0.0000</r>
       <r>  12.4846  0.0000</r>
       <r>  12.4846  0.0000</r>
       <r>  15.0038  0.0000</r>
       <r>  15.0038  0.0000</r>
      </set>
      <set comment="kpoint 44">
       <r>  -1.5992  1.0000</r>
       <r>   1.1411  1.0000</r>
       <r>   1.1411  1.0000</r>
       <r>   3.8355  1.0000</r>
       <r>   5.1076  1.0000</r>
       <r>   7.7333  0.0000</r>
       <r>   7.7333  0.0000</r>
       <r>   7.9921  0.0000</r>
       <r>  10.3295  0.0000</r>
       <r>  10.5702  0.0000</r>
       <r>  10.5702  0.0000</r>
       <r>  11.8112  0.0000</r>
       <r>  11.8112  0.0000</r>
       <r>  13.0771  0.0000</r>
       <r>  13.6129  0.0000</r>
       <r>  15.3451  0.0000</r>
      </set>
      <set comment="kpoint 45">
       <r>  -1.0815  1.0000</r>
       <r>   0.2904  1.0000</r>
       <r>   1.6499  1.0000</r>
       <r>   2.9989  1.0000</r>
       <r>   5.6025  1.0000</r>
       <r>   6.9167  0.0001</r>
       <r>   8.2229  0.0000</r>
       <r>   8.4847  0.0000</r>
       <r>   9.5227  0.0000</r>
       <r>   9.7798  0.0000</r>
       <r>  11.0496  0.0000</r>
       <r>  12.2764  0.0000</r>
       <r>  12.3087  0.0000</r>
       <r>  13.4014  0.0000</r>
       <r>  13.5440  0.0000</r>
       <r>  16.5020  0.0000</r>
      </set>
      <set comment="kpoint 46">
       <r>  -0.4512  1.0000</r>
       <r>  -0.4512  1.0000</r>
       <r>   2.2697  1.0000</r>
       <r>   2.2697  1.0000</r>
       <r>   6.2058  1.0000</r>
       <r>   6.2058  1.0000</r>
       <r>   8.8198  0.0000</r>
       <r>   8.8198  0.0000</r>
       <r>   9.0820  0.0000</r>
       <r>   9.0820  0.0000</r>
       <r>  11.6303  0.0000</r>
       <r>  11.6303  0.0000</r>
       <r>  12.8249  0.0000</r>
       <r>  12.8249  0.0000</r>
       <r>  15.3251  0.0000</r>
       <r>  15.3251  0.0000</r>
      </set>
      <set comment="kpoint 47">
       <r>  -0.5656  1.0000</r>
       <r>   0.8020  1.0000</r>
       <r>   0.8020  1.0000</r>
       <r>   2.1580  1.0000</r>
       <r>   6.0964  1.0000</r>
       <r>   7.4080  0.0000</r>
       <r>   7.4080  0.0000</r>
       <r>   8.7125  0.0000</r>
       <r>   8.9749  0.0000</r>
       <r>  10.2634  0.0000</r>
       <r>  10.2634  0.0000</r>
       <r>  11.5338  0.0000</r>
       <r>  13.9784  0.0000</r>
       <r>  13.9784  0.0000</r>
       <r>  14.5225  0.0000</r>
       <r>  16.3421  0.0000</r>
      </set>
      <set comment="kpoint 48">
       <r>   0.0628  1.0000</r>
       <r>   0.0628  1.0000</r>
       <r>   1.4250  1.0000</r>
       <r>   1.4250  1.0000</r>
       <r>   6.6986  1.0000</r>
       <r>   6.6986  1.0000</r>
       <r>   8.0070  0.0000</r>
       <r>   8.0070  0.0000</r>
       <r>   9.5692  0.0000</r>
       <r>   9.5692  0.0000</r>
       <r>  10.8495  0.0000</r>
       <r>  10.8495  0.0000</r>
       <r>  14.4351  0.0000</r>
       <r>  14.4351  0.0000</r>
       <r>  15.6621  0.0000</r>
       <r>  15.6621  0.0000</r>
      </set>
      <set comment="kpoint 49">
       <r>   0.6887  1.0000</r>
       <r>   0.6887  1.0000</r>
       <r>   0.6887  1.0000</r>
       <r>   0.6887  1.0000</r>
       <r>   7.2993  0.0000</r>
       <r>   7.2993  0.0000</r>
       <r>   7.2993  0.0000</r>
       <r>   7.2993  0.0000</r>
       <r>  10.1598  0.0000</r>
       <r>  10.1598  0.0000</r>
       <r>  10.1598  0.0000</r>
       <r>  10.1598  0.0000</r>
       <r>  15.6276  0.0000</r>
       <r>  15.6276  0.0000</r>
       <r>  15.6276  0.0000</r>
       <r>  15.6276  0.0000</r>
      </set>
      <set comment="kpoint 50">
       <r>  -2.8136  1.0000</r>
       <r>   2.6496  1.0000</r>
       <r>   2.6496  1.0000</r>
       <r>   2.6496  1.0000</r>
       <r>   7.9228  0.0000</r>
       <r>   7.9228  0.0000</r>
       <r>   7.9228  0.0000</r>
       <r>   8.1098  0.0000</r>
       <r>   8.1098  0.0000</r>
       <r>   8.1098  0.0000</r>
       <r>  12.5487  0.0000</r>
       <r>  12.5487  0.0000</r>
       <r>  12.5487  0.0000</r>
       <r>  13.0571  0.0000</r>
       <r>  14.0830  0.0000</r>
       <r>  14.0830  0.0000</r>
      </set>
      <set comment="kpoint 51">
       <r>  -2.5236  1.0000</r>
       <r>   1.5904  1.0000</r>
       <r>   2.9294  1.0000</r>
       <r>   2.9294  1.0000</r>
       <r>   6.9050  0.0214</r>
       <r>   6.9050  0.0214</r>
       <r>   8.2005  0.0000</r>
       <r>   8.3781  0.0000</r>
       <r>   8.3781  0.0000</r>
       <r>   9.6712  0.0000</r>
       <r>  12.0656  0.0000</r>
       <r>  12.1023  0.0000</r>
       <r>  12.1023  0.0000</r>
       <r>  12.8017  0.0000</r>
       <r>  14.3572  0.0000</r>
       <r>  15.0919  0.0000</r>
      </set>
      <set comment="kpoint 52">
       <r>  -2.1185  1.0000</r>
       <r>   0.6307  1.0000</r>
       <r>   3.3204  1.0000</r>
       <r>   3.3204  1.0000</r>
       <r>   5.9773  1.0000</r>
       <r>   5.9773  1.0000</r>
       <r>   8.5812  0.0000</r>
       <r>   8.7595  0.0000</r>
       <r>   8.7595  0.0000</r>
       <r>  11.1650  0.0000</r>
       <r>  11.2999  0.0000</r>
       <r>  11.2999  0.0000</r>
       <r>  11.3372  0.0000</r>
       <r>  13.1559  0.0000</r>
       <r>  14.7372  0.0000</r>
       <r>  15.5800  0.0000</r>
      </set>
      <set comment="kpoint 53">
       <r>  -1.5991  1.0000</r>
       <r>  -0.2227  1.0000</r>
       <r>   3.8219  1.0000</r>
       <r>   3.8219  1.0000</r>
       <r>   5.1520  1.0000</r>
       <r>   5.1520  1.0000</r>
       <r>   9.0692  0.0000</r>
       <r>   9.2469  0.0000</r>
       <r>   9.2469  0.0000</r>
       <r>  10.3630  0.0000</r>
       <r>  10.5294  0.0000</r>
       <r>  10.5294  0.0000</r>
       <r>  13.0889  0.0000</r>
       <r>  13.6112  0.0000</r>
       <r>  14.8241  0.0000</r>
       <r>  15.2188  0.0000</r>
      </set>
      <set comment="kpoint 54">
       <r>  -0.9667  1.0000</r>
       <r>  -0.9667  1.0000</r>
       <r>   4.4298  1.0000</r>
       <r>   4.4298  1.0000</r>
       <r>   4.4360  1.0000</r>
       <r>   4.4360  1.0000</r>
       <r>   9.6637  0.0000</r>
       <r>   9.6637  0.0000</r>
       <r>   9.7972  0.0000</r>
       <r>   9.7972  0.0000</r>
       <r>   9.8820  0.0000</r>
       <r>   9.8820  0.0000</r>
       <r>  14.1675  0.0000</r>
       <r>  14.1675  0.0000</r>
       <r>  14.9016  0.0000</r>
       <r>  14.9016  0.0000</r>
      </set>
      <set comment="kpoint 55">
       <r>  -2.2342  1.0000</r>
       <r>   1.8724  1.0000</r>
       <r>   1.8724  1.0000</r>
       <r>   3.2088  1.0000</r>
       <r>   5.8759  1.0000</r>
       <r>   7.1790  0.0000</r>
       <r>   7.1790  0.0000</r>
       <r>   8.6511  0.0000</r>
       <r>   9.9408  0.0000</r>
       <r>   9.9408  0.0000</r>
       <r>  11.0671  0.0000</r>
       <r>  12.3621  0.0000</r>
       <r>  12.3621  0.0000</r>
       <r>  13.0558  0.0000</r>
       <r>  14.7043  0.0000</r>
       <r>  15.3566  0.0000</r>
      </set>
      <set comment="kpoint 56">
       <r>  -1.8298  1.0000</r>
       <r>   0.9144  1.0000</r>
       <r>   2.2663  1.0000</r>
       <r>   3.5992  1.0000</r>
       <r>   4.9420  1.0000</r>
       <r>   6.2523  1.0000</r>
       <r>   7.5616  0.0000</r>
       <r>   9.0320  0.0000</r>
       <r>  10.1605  0.0000</r>
       <r>  10.3162  0.0000</r>
       <r>  11.5644  0.0000</r>
       <r>  11.6018  0.0000</r>
       <r>  12.7248  0.0000</r>
       <r>  12.7253  0.0000</r>
       <r>  15.1595  0.0000</r>
       <r>  15.7236  0.0000</r>
      </set>
      <set comment="kpoint 57">
       <r>  -1.3114  1.0000</r>
       <r>   0.0625  1.0000</r>
       <r>   2.7715  1.0000</r>
       <r>   4.0949  1.0000</r>
       <r>   4.1162  1.0000</r>
       <r>   5.4282  1.0000</r>
       <r>   8.0523  0.0000</r>
       <r>   9.3536  0.0000</r>
       <r>   9.5187  0.0000</r>
       <r>  10.7636  0.0000</r>
       <r>  10.8276  0.0000</r>
       <r>  12.0340  0.0000</r>
       <r>  13.1889  0.0000</r>
       <r>  13.3463  0.0000</r>
       <r>  14.4132  0.0000</r>
       <r>  16.1861  0.0000</r>
      </set>
      <set comment="kpoint 58">
       <r>  -0.6801  1.0000</r>
       <r>  -0.6801  1.0000</r>
       <r>   3.3869  1.0000</r>
       <r>   3.3869  1.0000</r>
       <r>   4.7102  1.0000</r>
       <r>   4.7102  1.0000</r>
       <r>   8.6502  0.0000</r>
       <r>   8.6502  0.0000</r>
       <r>  10.1079  0.0000</r>
       <r>  10.1079  0.0000</r>
       <r>  11.3737  0.0000</r>
       <r>  11.3737  0.0000</r>
       <r>  13.7533  0.0000</r>
       <r>  13.7533  0.0000</r>
       <r>  15.1498  0.0000</r>
       <r>  15.1498  0.0000</r>
      </set>
      <set comment="kpoint 59">
       <r>  -1.4265  1.0000</r>
       <r>   1.3108  1.0000</r>
       <r>   1.3108  1.0000</r>
       <r>   3.9825  1.0000</r>
       <r>   4.0089  1.0000</r>
       <r>   6.6368  1.0000</r>
       <r>   6.6368  1.0000</r>
       <r>   9.2489  0.0000</r>
       <r>   9.4116  0.0000</r>
       <r>  11.9276  0.0000</r>
       <r>  11.9276  0.0000</r>
       <r>  11.9740  0.0000</r>
       <r>  11.9740  0.0000</r>
       <r>  13.7651  0.0000</r>
       <r>  14.3852  0.0000</r>
       <r>  15.5017  0.0000</r>
      </set>
      <set comment="kpoint 60">
       <r>  -0.9094  1.0000</r>
       <r>   0.4610  1.0000</r>
       <r>   1.8191  1.0000</r>
       <r>   3.1667  1.0000</r>
       <r>   4.4887  1.0000</r>
       <r>   5.8143  1.0000</r>
       <r>   7.1299  0.0000</r>
       <r>   8.4377  0.0000</r>
       <r>   9.8967  0.0000</r>
       <r>  11.1674  0.0000</r>
       <r>  12.4039  0.0000</r>
       <r>  12.4339  0.0000</r>
       <r>  13.5560  0.0000</r>
       <r>  13.6400  0.0000</r>
       <r>  13.6985  0.0000</r>
       <r>  16.6508  0.0000</r>
      </set>
      <set comment="kpoint 61">
       <r>  -0.2797  1.0000</r>
       <r>  -0.2797  1.0000</r>
       <r>   2.4383  1.0000</r>
       <r>   2.4383  1.0000</r>
       <r>   5.0976  1.0000</r>
       <r>   5.0976  1.0000</r>
       <r>   7.7307  0.0000</r>
       <r>   7.7307  0.0000</r>
       <r>  10.4841  0.0000</r>
       <r>  10.4841  0.0000</r>
       <r>  12.9750  0.0000</r>
       <r>  12.9750  0.0000</r>
       <r>  12.9813  0.0000</r>
       <r>  12.9813  0.0000</r>
       <r>  15.4727  0.0000</r>
       <r>  15.4727  0.0000</r>
      </set>
      <set comment="kpoint 62">
       <r>  -0.3940  1.0000</r>
       <r>   0.9721  1.0000</r>
       <r>   0.9721  1.0000</r>
       <r>   2.3267  1.0000</r>
       <r>   4.9872  1.0000</r>
       <r>   6.3095  1.0000</r>
       <r>   6.3095  1.0000</r>
       <r>   7.6229  0.0000</r>
       <r>  10.3796  0.0000</r>
       <r>  11.6438  0.0000</r>
       <r>  11.6438  0.0000</r>
       <r>  12.8906  0.0000</r>
       <r>  14.1321  0.0000</r>
       <r>  14.1321  0.0000</r>
       <r>  14.6746  0.0000</r>
       <r>  16.4885  0.0000</r>
      </set>
      <set comment="kpoint 63">
       <r>   0.2336  1.0000</r>
       <r>   0.2336  1.0000</r>
       <r>   1.5944  1.0000</r>
       <r>   1.5944  1.0000</r>
       <r>   5.5946  1.0000</r>
       <r>   5.5946  1.0000</r>
       <r>   6.9128  0.0009</r>
       <r>   6.9128  0.0009</r>
       <r>  10.9640  0.0000</r>
       <r>  10.9640  0.0000</r>
       <r>  12.2202  0.0000</r>
       <r>  12.2202  0.0000</r>
       <r>  14.5880  0.0000</r>
       <r>  14.5880  0.0000</r>
       <r>  15.8108  0.0000</r>
       <r>  15.8108  0.0000</r>
      </set>
      <set comment="kpoint 64">
       <r>   0.8589  1.0000</r>
       <r>   0.8589  1.0000</r>
       <r>   0.8589  1.0000</r>
       <r>   0.8589  1.0000</r>
       <r>   6.2001  1.0000</r>
       <r>   6.2001  1.0000</r>
       <r>   6.2001  1.0000</r>
       <r>   6.2001  1.0000</r>
       <r>  11.5448  0.0000</r>
       <r>  11.5448  0.0000</r>
       <r>  11.5448  0.0000</r>
       <r>  11.5448  0.0000</r>
       <r>  15.7783  0.0000</r>
       <r>  15.7783  0.0000</r>
       <r>  15.7783  0.0000</r>
       <r>  15.7783  0.0000</r>
      </set>
      <set comment="kpoint 65">
       <r>  -1.9453  1.0000</r>
       <r>   2.1538  1.0000</r>
       <r>   2.1538  1.0000</r>
       <r>   2.1538  1.0000</r>
       <r>   6.1513  1.0000</r>
       <r>   6.1513  1.0000</r>
       <r>   6.1513  1.0000</r>
       <r>  10.0623  0.0000</r>
       <r>  10.2101  0.0000</r>
       <r>  10.2101  0.0000</r>
       <r>  10.2101  0.0000</r>
       <r>  13.3091  0.0000</r>
       <r>  13.3091  0.0000</r>
       <r>  13.3091  0.0000</r>
       <r>  14.9724  0.0000</r>
       <r>  14.9724  0.0000</r>
      </set>
      <set comment="kpoint 66">
       <r>  -1.5417  1.0000</r>
       <r>   1.1976  1.0000</r>
       <r>   2.5471  1.0000</r>
       <r>   2.5471  1.0000</r>
       <r>   5.2188  1.0000</r>
       <r>   5.2188  1.0000</r>
       <r>   6.5362  1.0000</r>
       <r>   9.1503  0.0000</r>
       <r>  10.5849  0.0000</r>
       <r>  10.5849  0.0000</r>
       <r>  11.8659  0.0000</r>
       <r>  12.9841  0.0000</r>
       <r>  12.9841  0.0000</r>
       <r>  13.6636  0.0000</r>
       <r>  15.3416  0.0000</r>
       <r>  16.0399  0.0000</r>
      </set>
      <set comment="kpoint 67">
       <r>  -1.0242  1.0000</r>
       <r>   0.3472  1.0000</r>
       <r>   3.0514  1.0000</r>
       <r>   3.0514  1.0000</r>
       <r>   4.3894  1.0000</r>
       <r>   4.3894  1.0000</r>
       <r>   7.0297  0.0000</r>
       <r>   8.3386  0.0000</r>
       <r>  11.0625  0.0000</r>
       <r>  11.0625  0.0000</r>
       <r>  12.2965  0.0000</r>
       <r>  12.2965  0.0000</r>
       <r>  13.6013  0.0000</r>
       <r>  14.1193  0.0000</r>
       <r>  15.3318  0.0000</r>
       <r>  15.8044  0.0000</r>
      </set>
      <set comment="kpoint 68">
       <r>  -0.3941  1.0000</r>
       <r>  -0.3941  1.0000</r>
       <r>   3.6477  1.0000</r>
       <r>   3.6477  1.0000</r>
       <r>   3.6845  1.0000</r>
       <r>   3.6845  1.0000</r>
       <r>   7.6311  0.0000</r>
       <r>   7.6311  0.0000</r>
       <r>  11.6178  0.0000</r>
       <r>  11.6178  0.0000</r>
       <r>  11.6580  0.0000</r>
       <r>  11.6580  0.0000</r>
       <r>  14.6757  0.0000</r>
       <r>  14.6757  0.0000</r>
       <r>  15.3805  0.0000</r>
       <r>  15.3805  0.0000</r>
      </set>
      <set comment="kpoint 69">
       <r>  -1.1391  1.0000</r>
       <r>   1.5933  1.0000</r>
       <r>   1.5933  1.0000</r>
       <r>   2.9393  1.0000</r>
       <r>   4.2811  1.0000</r>
       <r>   5.6057  1.0000</r>
       <r>   5.6057  1.0000</r>
       <r>   8.2333  0.0000</r>
       <r>  10.9585  0.0000</r>
       <r>  12.2322  0.0000</r>
       <r>  12.2322  0.0000</r>
       <r>  13.3452  0.0000</r>
       <r>  13.3452  0.0000</r>
       <r>  14.0185  0.0000</r>
       <r>  15.7075  0.0000</r>
       <r>  15.7585  0.0000</r>
      </set>
      <set comment="kpoint 70">
       <r>  -0.6230  1.0000</r>
       <r>   0.7450  1.0000</r>
       <r>   2.1007  1.0000</r>
       <r>   3.4211  1.0000</r>
       <r>   3.4684  1.0000</r>
       <r>   4.7779  1.0000</r>
       <r>   6.1018  1.0000</r>
       <r>   7.4174  0.0000</r>
       <r>  11.4344  0.0000</r>
       <r>  12.6621  0.0000</r>
       <r>  12.6954  0.0000</r>
       <r>  13.8043  0.0000</r>
       <r>  13.8129  0.0000</r>
       <r>  13.9560  0.0000</r>
       <r>  15.0105  0.0000</r>
       <r>  16.8268  0.0000</r>
      </set>
      <set comment="kpoint 71">
       <r>   0.0056  1.0000</r>
       <r>   0.0056  1.0000</r>
       <r>   2.7186  1.0000</r>
       <r>   2.7186  1.0000</r>
       <r>   4.0566  1.0000</r>
       <r>   4.0566  1.0000</r>
       <r>   6.7062  1.0000</r>
       <r>   6.7062  1.0000</r>
       <r>  12.0070  0.0000</r>
       <r>  12.0070  0.0000</r>
       <r>  13.2409  0.0000</r>
       <r>  13.2409  0.0000</r>
       <r>  14.3644  0.0000</r>
       <r>  14.3644  0.0000</r>
       <r>  15.7105  0.0000</r>
       <r>  15.7105  0.0000</r>
      </set>
      <set comment="kpoint 72">
       <r>  -0.1085  1.0000</r>
       <r>   1.2551  1.0000</r>
       <r>   1.2551  1.0000</r>
       <r>   2.6072  1.0000</r>
       <r>   3.9455  1.0000</r>
       <r>   5.2762  1.0000</r>
       <r>   5.2762  1.0000</r>
       <r>   6.5978  1.0000</r>
       <r>  11.9079  0.0000</r>
       <r>  13.1287  0.0000</r>
       <r>  13.1287  0.0000</r>
       <r>  14.3348  0.0000</r>
       <r>  14.3865  0.0000</r>
       <r>  14.3865  0.0000</r>
       <r>  14.9278  0.0000</r>
       <r>  16.7242  0.0000</r>
      </set>
      <set comment="kpoint 73">
       <r>   0.5180  1.0000</r>
       <r>   0.5180  1.0000</r>
       <r>   1.8764  1.0000</r>
       <r>   1.8764  1.0000</r>
       <r>   4.5568  1.0000</r>
       <r>   4.5568  1.0000</r>
       <r>   5.8833  1.0000</r>
       <r>   5.8833  1.0000</r>
       <r>  12.4775  0.0000</r>
       <r>  12.4775  0.0000</r>
       <r>  13.6906  0.0000</r>
       <r>  13.6906  0.0000</r>
       <r>  14.8413  0.0000</r>
       <r>  14.8413  0.0000</r>
       <r>  16.0540  0.0000</r>
       <r>  16.0540  0.0000</r>
      </set>
      <set comment="kpoint 74">
       <r>   1.1421  1.0000</r>
       <r>   1.1421  1.0000</r>
       <r>   1.1421  1.0000</r>
       <r>   1.1421  1.0000</r>
       <r>   5.1662  1.0000</r>
       <r>   5.1662  1.0000</r>
       <r>   5.1662  1.0000</r>
       <r>   5.1662  1.0000</r>
       <r>  13.0434  0.0000</r>
       <r>  13.0434  0.0000</r>
       <r>  13.0434  0.0000</r>
       <r>  13.0434  0.0000</r>
       <r>  16.0282  0.0000</r>
       <r>  16.0282  0.0000</r>
       <r>  16.0282  0.0000</r>
       <r>  16.0282  0.0000</r>
      </set>
      <set comment="kpoint 75">
       <r>  -0.7375  1.0000</r>
       <r>   1.9880  1.0000</r>
       <r>   1.9880  1.0000</r>
       <r>   1.9880  1.0000</r>
       <r>   4.6700  1.0000</r>
       <r>   4.6700  1.0000</r>
       <r>   4.6700  1.0000</r>
       <r>   7.3115  0.0000</r>
       <r>  12.5969  0.0000</r>
       <r>  12.5969  0.0000</r>
       <r>  12.5969  0.0000</r>
       <r>  14.3732  0.0000</r>
       <r>  14.3732  0.0000</r>
       <r>  14.3732  0.0000</r>
       <r>  16.1071  0.0000</r>
       <r>  16.1071  0.0000</r>
      </set>
      <set comment="kpoint 76">
       <r>  -0.2227  1.0000</r>
       <r>   1.1419  1.0000</r>
       <r>   2.4939  1.0000</r>
       <r>   2.4939  1.0000</r>
       <r>   3.8379  1.0000</r>
       <r>   3.8379  1.0000</r>
       <r>   5.1687  1.0000</r>
       <r>   6.4913  1.0000</r>
       <r>  13.0580  0.0000</r>
       <r>  13.0580  0.0000</r>
       <r>  14.1709  0.0000</r>
       <r>  14.1709  0.0000</r>
       <r>  14.3024  0.0000</r>
       <r>  14.8287  0.0000</r>
       <r>  16.0361  0.0000</r>
       <r>  16.5306  0.0000</r>
      </set>
      <set comment="kpoint 77">
       <r>   0.4042  1.0000</r>
       <r>   0.4042  1.0000</r>
       <r>   3.0794  1.0000</r>
       <r>   3.0794  1.0000</r>
       <r>   3.1435  1.0000</r>
       <r>   3.1435  1.0000</r>
       <r>   5.7763  1.0000</r>
       <r>   5.7763  1.0000</r>
       <r>  13.5853  0.0000</r>
       <r>  13.5853  0.0000</r>
       <r>  13.6178  0.0000</r>
       <r>  13.6178  0.0000</r>
       <r>  15.3839  0.0000</r>
       <r>  15.3839  0.0000</r>
       <r>  16.0117  0.0000</r>
       <r>  16.0117  0.0000</r>
      </set>
      <set comment="kpoint 78">
       <r>   0.2904  1.0000</r>
       <r>   1.6506  1.0000</r>
       <r>   1.6506  1.0000</r>
       <r>   2.9649  1.0000</r>
       <r>   3.0351  1.0000</r>
       <r>   4.3387  1.0000</r>
       <r>   4.3387  1.0000</r>
       <r>   5.6673  1.0000</r>
       <r>  13.5167  0.0000</r>
       <r>  14.6153  0.0000</r>
       <r>  14.6153  0.0000</r>
       <r>  14.7456  0.0000</r>
       <r>  14.7456  0.0000</r>
       <r>  15.2814  0.0000</r>
       <r>  15.7605  0.0000</r>
       <r>  17.0303  0.0000</r>
      </set>
      <set comment="kpoint 79">
       <r>   0.9154  1.0000</r>
       <r>   0.9154  1.0000</r>
       <r>   2.2700  1.0000</r>
       <r>   2.2700  1.0000</r>
       <r>   3.6156  1.0000</r>
       <r>   3.6156  1.0000</r>
       <r>   4.9491  1.0000</r>
       <r>   4.9491  1.0000</r>
       <r>  14.0570  0.0000</r>
       <r>  14.0570  0.0000</r>
       <r>  15.1666  0.0000</r>
       <r>  15.1666  0.0000</r>
       <r>  15.1925  0.0000</r>
       <r>  15.1925  0.0000</r>
       <r>  16.3758  0.0000</r>
       <r>  16.3758  0.0000</r>
      </set>
      <set comment="kpoint 80">
       <r>   1.5379  1.0000</r>
       <r>   1.5379  1.0000</r>
       <r>   1.5379  1.0000</r>
       <r>   1.5379  1.0000</r>
       <r>   4.2280  1.0000</r>
       <r>   4.2280  1.0000</r>
       <r>   4.2280  1.0000</r>
       <r>   4.2280  1.0000</r>
       <r>  14.5963  0.0000</r>
       <r>  14.5963  0.0000</r>
       <r>  14.5963  0.0000</r>
       <r>  14.5963  0.0000</r>
       <r>  16.3728  0.0000</r>
       <r>  16.3728  0.0000</r>
       <r>  16.3728  0.0000</r>
       <r>  16.3728  0.0000</r>
      </set>
      <set comment="kpoint 81">
       <r>   0.8019  1.0000</r>
       <r>   2.1574  1.0000</r>
       <r>   2.1574  1.0000</r>
       <r>   2.1574  1.0000</r>
       <r>   3.5051  1.0000</r>
       <r>   3.5051  1.0000</r>
       <r>   3.5051  1.0000</r>
       <r>   4.8395  1.0000</r>
       <r>  15.1635  0.0000</r>
       <r>  15.1635  0.0000</r>
       <r>  15.1635  0.0000</r>
       <r>  15.7338  0.0000</r>
       <r>  15.7338  0.0000</r>
       <r>  15.7338  0.0000</r>
       <r>  16.8949  0.0000</r>
       <r>  16.8949  0.0000</r>
      </set>
      <set comment="kpoint 82">
       <r>   1.4248  1.0000</r>
       <r>   1.4248  1.0000</r>
       <r>   2.7354  1.0000</r>
       <r>   2.7354  1.0000</r>
       <r>   2.8180  1.0000</r>
       <r>   2.8180  1.0000</r>
       <r>   4.1180  1.0000</r>
       <r>   4.1180  1.0000</r>
       <r>  15.5764  0.0000</r>
       <r>  15.5764  0.0000</r>
       <r>  15.6797  0.0000</r>
       <r>  15.6797  0.0000</r>
       <r>  16.2797  0.0000</r>
       <r>  16.2797  0.0000</r>
       <r>  16.7024  0.0000</r>
       <r>  16.7024  0.0000</r>
      </set>
      <set comment="kpoint 83">
       <r>   2.0449  1.0000</r>
       <r>   2.0449  1.0000</r>
       <r>   2.0449  1.0000</r>
       <r>   2.0449  1.0000</r>
       <r>   3.3940  1.0000</r>
       <r>   3.3940  1.0000</r>
       <r>   3.3940  1.0000</r>
       <r>   3.3940  1.0000</r>
       <r>  16.1080  0.0000</r>
       <r>  16.1080  0.0000</r>
       <r>  16.1080  0.0000</r>
       <r>  16.1080  0.0000</r>
       <r>  16.7922  0.0000</r>
       <r>  16.7922  0.0000</r>
       <r>  16.7922  0.0000</r>
       <r>  16.7922  0.0000</r>
      </set>
      <set comment="kpoint 84">
       <r>   2.6202  1.0000</r>
       <r>   2.6202  1.0000</r>
       <r>   2.6202  1.0000</r>
       <r>   2.6202  1.0000</r>
       <r>   2.7094  1.0000</r>
       <r>   2.7094  1.0000</r>
       <r>   2.7094  1.0000</r>
       <r>   2.7094  1.0000</r>
       <r>  17.1005  0.0000</r>
       <r>  17.1005  0.0000</r>
       <r>  17.1005  0.0000</r>
       <r>  17.1005  0.0000</r>
       <r>  17.1005  0.0000</r>
       <r>  17.1005  0.0000</r>
       <r>  17.1005  0.0000</r>
       <r>  17.1005  0.0000</r>
      </set>
     </set>
    </set>
   </array>
  </eigenvalues>
 </calculation>
 <structure name="finalpos" >
  <crystal>
   <varray name="basis" >
    <v>       4.19879862      0.00000000      0.00000000</v>
    <v>       0.00000000      4.19879862      0.00000000</v>
    <v>       0.00000000      0.00000000      4.19879862</v>
   </varray>
   <i name="volume">     74.02444139</i>
   <varray name="rec_basis" >
    <v>       0.23816336      0.00000000      0.00000000</v>
    <v>       0.00000000      0.23816336      0.00000000</v>
    <v>       0.00000000      0.00000000      0.23816336</v>
   </varray>
  </crystal>
  <varray name="positions" >
   <v>       0.50000000      0.50000000      0.00000000</v>
   <v>       0.50000000      0.00000000      0.50000000</v>
   <v>       0.00000000      0.50000000      0.50000000</v>
   <v>       0.00000000      0.00000000      0.00000000</v>
  </varray>
 </structure>
</modeling>
