  32  32   0   0
  0.1657884E+02  0.8095333E-09  0.8095333E-09  0.8095333E-09  0.5000000E-15
  1.000000000000000E-004
  CAR 
 unknown system                          
     18.68239379     -5.11481790  301      6.15379781      1.00000000
     -5.115  0.0000E+00  0.0000E+00
     -5.035  0.0000E+00  0.0000E+00
     -4.956  0.0000E+00  0.0000E+00
     -4.877  0.0000E+00  0.0000E+00
     -4.798  0.0000E+00  0.0000E+00
     -4.718  0.0000E+00  0.0000E+00
     -4.639  0.0000E+00  0.0000E+00
     -4.560  0.0000E+00  0.0000E+00
     -4.480  0.0000E+00  0.0000E+00
     -4.401  0.0000E+00  0.0000E+00
     -4.322  0.0000E+00  0.0000E+00
     -4.242  0.0000E+00  0.0000E+00
     -4.163  0.0000E+00  0.0000E+00
     -4.084  0.6868E-14  0.5448E-15
     -4.004  0.9666E-01  0.7668E-02
     -3.925  0.6265E+00  0.5827E-01
     -3.846  0.7638E+00  0.1268E+00
     -3.766  0.1001E+01  0.2185E+00
     -3.687  0.1210E+01  0.3145E+00
     -3.608  0.1880E+01  0.4638E+00
     -3.528  0.1319E+01  0.5689E+00
     -3.449  0.2204E+01  0.7440E+00
     -3.370  0.1842E+01  0.8901E+00
     -3.290  0.2325E+01  0.1075E+01
     -3.211  0.2484E+01  0.1272E+01
     -3.132  0.2722E+01  0.1501E+01
     -3.052  0.2052E+01  0.1676E+01
     -2.973  0.3124E+01  0.1943E+01
     -2.894  0.2401E+01  0.2155E+01
     -2.814  0.3312E+01  0.2426E+01
     -2.735  0.3364E+01  0.2701E+01
     -2.656  0.2481E+01  0.2916E+01
     -2.576  0.4811E+01  0.3297E+01
     -2.497  0.2483E+01  0.3495E+01
     -2.418  0.4208E+01  0.3836E+01
     -2.338  0.4734E+01  0.4219E+01
     -2.259  0.4598E+01  0.4592E+01
     -2.180  0.3649E+01  0.4888E+01
     -2.101  0.5943E+01  0.5359E+01
     -2.021  0.5614E+01  0.5817E+01
     -1.942  0.5215E+01  0.6234E+01
     -1.863  0.6895E+01  0.6785E+01
     -1.783  0.4821E+01  0.7184E+01
     -1.704  0.9723E+01  0.7961E+01
     -1.625  0.5405E+01  0.8422E+01
     -1.545  0.1007E+02  0.9233E+01
     -1.466  0.1503E+02  0.1047E+02
     -1.387  0.1796E+02  0.1194E+02
     -1.307  0.2023E+02  0.1360E+02
     -1.228  0.1934E+02  0.1521E+02
     -1.149  0.2899E+02  0.1752E+02
     -1.069  0.2857E+02  0.1987E+02
     -0.990  0.3142E+02  0.2251E+02
     -0.911  0.4036E+02  0.2581E+02
     -0.831  0.4675E+02  0.2967E+02
     -0.752  0.4978E+02  0.3376E+02
     -0.673  0.5551E+02  0.3833E+02
     -0.593  0.5828E+02  0.4315E+02
     -0.514  0.5287E+02  0.4749E+02
     -0.435  0.6024E+02  0.5240E+02
     -0.355  0.4464E+02  0.5607E+02
     -0.276  0.5837E+02  0.6076E+02
     -0.197  0.4183E+02  0.6423E+02
     -0.117  0.5353E+02  0.6857E+02
     -0.038  0.4385E+02  0.7213E+02
      0.041  0.4608E+02  0.7591E+02
      0.121  0.3701E+02  0.7899E+02
      0.200  0.3245E+02  0.8166E+02
      0.279  0.3700E+02  0.8472E+02
      0.359  0.4800E+02  0.8873E+02
      0.438  0.5118E+02  0.9287E+02
      0.517  0.5268E+02  0.9729E+02
      0.597  0.5228E+02  0.1017E+03
      0.676  0.5822E+02  0.1064E+03
      0.755  0.6106E+02  0.1114E+03
      0.834  0.5361E+02  0.1158E+03
      0.914  0.5731E+02  0.1205E+03
      0.993  0.5801E+02  0.1253E+03
      1.072  0.6505E+02  0.1306E+03
      1.152  0.5790E+02  0.1353E+03
      1.231  0.6490E+02  0.1407E+03
      1.310  0.7829E+02  0.1470E+03
      1.390  0.7786E+02  0.1533E+03
      1.469  0.8225E+02  0.1600E+03
      1.548  0.1017E+03  0.1684E+03
      1.628  0.1015E+03  0.1767E+03
      1.707  0.7785E+02  0.1830E+03
      1.786  0.5553E+02  0.1876E+03
      1.866  0.5266E+02  0.1919E+03
      1.945  0.4708E+02  0.1958E+03
      2.024  0.5592E+02  0.2004E+03
      2.104  0.4390E+02  0.2040E+03
      2.183  0.4730E+02  0.2079E+03
      2.262  0.4640E+02  0.2117E+03
      2.342  0.5166E+02  0.2159E+03
      2.421  0.5673E+02  0.2205E+03
      2.500  0.5854E+02  0.2253E+03
      2.580  0.5844E+02  0.2301E+03
      2.659  0.6405E+02  0.2354E+03
      2.738  0.7044E+02  0.2411E+03
      2.818  0.5322E+02  0.2455E+03
      2.897  0.6005E+02  0.2504E+03
      2.976  0.5172E+02  0.2546E+03
      3.056  0.5604E+02  0.2592E+03
      3.135  0.4328E+02  0.2628E+03
      3.214  0.4855E+02  0.2668E+03
      3.294  0.5014E+02  0.2709E+03
      3.373  0.4731E+02  0.2748E+03
      3.452  0.4798E+02  0.2787E+03
      3.532  0.4659E+02  0.2825E+03
      3.611  0.5040E+02  0.2867E+03
      3.690  0.4857E+02  0.2907E+03
      3.769  0.6207E+02  0.2957E+03
      3.849  0.5749E+02  0.3005E+03
      3.928  0.7190E+02  0.3064E+03
      4.007  0.8969E+02  0.3138E+03
      4.087  0.9355E+02  0.3214E+03
      4.166  0.6554E+02  0.3269E+03
      4.245  0.4966E+02  0.3310E+03
      4.325  0.3419E+02  0.3338E+03
      4.404  0.3586E+02  0.3368E+03
      4.483  0.9745E+01  0.3377E+03
      4.563  0.3294E+01  0.3379E+03
      4.642  0.7644E+01  0.3385E+03
      4.721  0.1678E+02  0.3399E+03
      4.801  0.4042E+01  0.3402E+03
      4.880  0.7659E+01  0.3409E+03
      4.959  0.8194E+01  0.3415E+03
      5.039  0.1178E+02  0.3425E+03
      5.118  0.5995E+01  0.3430E+03
      5.197  0.7495E+01  0.3436E+03
      5.277  0.9946E+01  0.3444E+03
      5.356  0.9315E+01  0.3452E+03
      5.435  0.7194E+01  0.3458E+03
      5.515  0.7153E+01  0.3464E+03
      5.594  0.1245E+02  0.3474E+03
      5.673  0.7589E+01  0.3480E+03
      5.753  0.5353E+01  0.3485E+03
      5.832  0.8860E+01  0.3492E+03
      5.911  0.1323E+02  0.3502E+03
      5.991  0.6754E+01  0.3508E+03
      6.070  0.6894E+01  0.3514E+03
      6.149  0.7072E+01  0.3519E+03
      6.229  0.1438E+02  0.3531E+03
      6.308  0.4743E+01  0.3535E+03
      6.387  0.6254E+01  0.3541E+03
      6.466  0.8448E+01  0.3548E+03
      6.546  0.1018E+02  0.3556E+03
      6.625  0.9768E+01  0.3564E+03
      6.704  0.7393E+01  0.3570E+03
      6.784  0.7928E+01  0.3576E+03
      6.863  0.6918E+01  0.3582E+03
      6.942  0.9038E+01  0.3589E+03
      7.022  0.1178E+02  0.3598E+03
      7.101  0.7794E+01  0.3605E+03
      7.180  0.4542E+01  0.3609E+03
      7.260  0.8779E+01  0.3617E+03
      7.339  0.9754E+01  0.3625E+03
      7.418  0.8453E+01  0.3632E+03
      7.498  0.5081E+01  0.3636E+03
      7.577  0.1036E+02  0.3644E+03
      7.656  0.9036E+01  0.3651E+03
      7.736  0.7536E+01  0.3658E+03
      7.815  0.8610E+01  0.3665E+03
      7.894  0.6277E+01  0.3670E+03
      7.974  0.1111E+02  0.3679E+03
      8.053  0.5816E+01  0.3683E+03
      8.132  0.5852E+01  0.3688E+03
      8.212  0.9779E+01  0.3696E+03
      8.291  0.7666E+01  0.3703E+03
      8.370  0.7546E+01  0.3709E+03
      8.450  0.7099E+01  0.3715E+03
      8.529  0.6380E+01  0.3720E+03
      8.608  0.6905E+01  0.3726E+03
      8.688  0.7796E+01  0.3732E+03
      8.767  0.6307E+01  0.3737E+03
      8.846  0.9433E+01  0.3745E+03
      8.926  0.5527E+01  0.3749E+03
      9.005  0.6727E+01  0.3755E+03
      9.084  0.5300E+01  0.3759E+03
      9.164  0.8370E+01  0.3766E+03
      9.243  0.7372E+01  0.3772E+03
      9.322  0.6566E+01  0.3777E+03
      9.401  0.1580E+02  0.3790E+03
      9.481  0.1840E+02  0.3805E+03
      9.560  0.1054E+02  0.3814E+03
      9.639  0.1431E+02  0.3825E+03
      9.719  0.1041E+02  0.3834E+03
      9.798  0.9189E+01  0.3841E+03
      9.877  0.1148E+02  0.3850E+03
      9.957  0.9428E+01  0.3858E+03
     10.036  0.8496E+01  0.3865E+03
     10.115  0.1070E+02  0.3874E+03
     10.195  0.8878E+01  0.3881E+03
     10.274  0.7158E+01  0.3887E+03
     10.353  0.7819E+01  0.3893E+03
     10.433  0.1111E+02  0.3902E+03
     10.512  0.5523E+01  0.3907E+03
     10.591  0.9753E+01  0.3915E+03
     10.671  0.3994E+01  0.3918E+03
     10.750  0.1205E+02  0.3928E+03
     10.829  0.1061E+02  0.3937E+03
     10.909  0.8884E+01  0.3944E+03
     10.988  0.8051E+01  0.3950E+03
     11.067  0.7422E+01  0.3956E+03
     11.147  0.1326E+02  0.3968E+03
     11.226  0.8718E+01  0.3975E+03
     11.305  0.7282E+01  0.3981E+03
     11.385  0.1055E+02  0.3989E+03
     11.464  0.1278E+02  0.3999E+03
     11.543  0.5862E+01  0.4005E+03
     11.623  0.1324E+02  0.4015E+03
     11.702  0.1016E+02  0.4023E+03
     11.781  0.1439E+02  0.4035E+03
     11.861  0.1024E+02  0.4043E+03
     11.940  0.1015E+02  0.4052E+03
     12.019  0.9952E+01  0.4060E+03
     12.098  0.8791E+01  0.4067E+03
     12.178  0.1335E+02  0.4077E+03
     12.257  0.1477E+02  0.4090E+03
     12.336  0.7845E+01  0.4096E+03
     12.416  0.7693E+01  0.4103E+03
     12.495  0.7401E+01  0.4109E+03
     12.574  0.1167E+02  0.4118E+03
     12.654  0.9102E+01  0.4126E+03
     12.733  0.6704E+01  0.4131E+03
     12.812  0.1064E+02  0.4140E+03
     12.892  0.1058E+02  0.4149E+03
     12.971  0.6860E+01  0.4154E+03
     13.050  0.9179E+01  0.4161E+03
     13.130  0.4851E+01  0.4166E+03
     13.209  0.7594E+01  0.4172E+03
     13.288  0.1120E+02  0.4181E+03
     13.368  0.1037E+02  0.4190E+03
     13.447  0.9756E+01  0.4197E+03
     13.526  0.7009E+01  0.4203E+03
     13.606  0.1261E+02  0.4213E+03
     13.685  0.9802E+01  0.4222E+03
     13.764  0.8924E+01  0.4229E+03
     13.844  0.7133E+01  0.4235E+03
     13.923  0.1793E+02  0.4249E+03
     14.002  0.1142E+02  0.4259E+03
     14.082  0.1166E+02  0.4268E+03
     14.161  0.4689E+01  0.4272E+03
     14.240  0.1149E+02  0.4281E+03
     14.320  0.1179E+02  0.4292E+03
     14.399  0.8829E+01  0.4299E+03
     14.478  0.8724E+01  0.4306E+03
     14.558  0.1498E+02  0.4318E+03
     14.637  0.1243E+02  0.4329E+03
     14.716  0.1014E+02  0.4337E+03
     14.796  0.8732E+01  0.4344E+03
     14.875  0.8836E+01  0.4351E+03
     14.954  0.1504E+02  0.4363E+03
     15.033  0.1036E+02  0.4372E+03
     15.113  0.9074E+01  0.4379E+03
     15.192  0.9267E+01  0.4387E+03
     15.271  0.9410E+01  0.4394E+03
     15.351  0.1488E+02  0.4406E+03
     15.430  0.1200E+02  0.4417E+03
     15.509  0.1091E+02  0.4426E+03
     15.589  0.8571E+01  0.4433E+03
     15.668  0.1012E+02  0.4441E+03
     15.747  0.9576E+01  0.4449E+03
     15.827  0.7427E+01  0.4455E+03
     15.906  0.3527E+01  0.4458E+03
     15.985  0.5854E+01  0.4463E+03
     16.065  0.6008E+01  0.4468E+03
     16.144  0.3282E+01  0.4471E+03
     16.223  0.2779E+01  0.4473E+03
     16.303  0.1679E+01  0.4474E+03
     16.382  0.5566E+00  0.4475E+03
     16.461  0.3527E+00  0.4475E+03
     16.541  0.1388E+01  0.4476E+03
     16.620  0.7004E+00  0.4477E+03
     16.699  0.1581E+00  0.4477E+03
     16.779  0.1921E+00  0.4477E+03
     16.858  0.6022E+00  0.4478E+03
     16.937  0.8164E+00  0.4478E+03
     17.017  0.7112E+00  0.4479E+03
     17.096  0.1134E+01  0.4480E+03
     17.175  0.3501E+00  0.4480E+03
     17.255  0.0000E+00  0.4480E+03
     17.334  0.0000E+00  0.4480E+03
     17.413  0.0000E+00  0.4480E+03
     17.493  0.0000E+00  0.4480E+03
     17.572  0.3922E-04  0.4480E+03
     17.651  0.1167E+00  0.4480E+03
     17.731  0.0000E+00  0.4480E+03
     17.810  0.0000E+00  0.4480E+03
     17.889  0.0000E+00  0.4480E+03
     17.968  0.0000E+00  0.4480E+03
     18.048  0.0000E+00  0.4480E+03
     18.127  0.0000E+00  0.4480E+03
     18.206  0.0000E+00  0.4480E+03
     18.286  0.0000E+00  0.4480E+03
     18.365  0.0000E+00  0.4480E+03
     18.444  0.0000E+00  0.4480E+03
     18.524  0.0000E+00  0.4480E+03
     18.603  0.0000E+00  0.4480E+03
     18.682  0.0000E+00  0.4480E+03
