   32   32    1    1
  0.1657884E+02  0.8095333E-09  0.8095333E-09  0.8095333E-09  0.5000000E-15
  1.000000000000000E-004
  CAR 
 unknown system                          
  352  196  224
 
  0.0000000E+00  0.0000000E+00  0.0000000E+00  0.5787037E-03
   1       -4.0331
   2       -1.5682
   3       -1.5645
   4       -1.5645
   5       -1.5645
   6       -1.5645
   7       -1.5609
   8       -1.4921
   9       -1.4921
  10       -1.4921
  11       -1.4920
  12       -1.2610
  13       -1.2610
  14       -1.2610
  15       -0.9388
  16       -0.9388
  17       -0.9388
  18       -0.2115
  19       -0.2100
  20       -0.2100
  21       -0.2079
  22       -0.2077
  23       -0.2077
  24       -0.2077
  25       -0.2077
  26       -0.2074
  27       -0.2054
  28       -0.2054
  29       -0.2039
  30       -0.1211
  31       -0.1184
  32       -0.1184
  33       -0.1184
  34       -0.1184
  35       -0.1158
  36        0.0402
  37        0.0429
  38        0.0429
  39        0.0429
  40        0.0429
  41        0.0455
  42        0.6543
  43        0.6577
  44        0.6577
  45        0.6592
  46        0.6592
  47        0.6592
  48        0.6592
  49        0.6592
  50        0.6593
  51        0.6606
  52        0.6606
  53        0.6637
  54        0.7281
  55        0.7281
  56        0.7308
  57        0.7308
  58        0.7308
  59        0.7309
  60        0.7309
  61        0.7310
  62        0.7310
  63        0.7312
  64        0.7338
  65        0.7338
  66        1.0090
  67        1.0135
  68        1.0135
  69        1.0135
  70        1.0139
  71        1.0139
  72        1.0139
  73        1.0139
  74        1.0141
  75        1.0142
  76        1.0142
  77        1.0187
  78        1.1794
  79        1.1795
  80        1.1795
  81        1.1795
  82        1.1795
  83        1.1795
  84        1.1795
  85        1.1796
  86        1.2197
  87        1.2197
  88        1.2198
  89        1.9527
  90        1.9553
  91        1.9553
  92        1.9553
  93        1.9554
  94        1.9580
  95        2.1792
  96        2.1801
  97        2.1816
  98        2.1816
  99        2.1824
 100        2.1824
 101        2.1824
 102        2.1824
 103        2.1832
 104        2.1832
 105        2.1848
 106        2.1855
 107        2.5099
 108        2.5099
 109        2.5132
 110        2.5132
 111        2.5135
 112        2.5135
 113        2.5135
 114        2.5135
 115        2.5137
 116        2.5137
 117        2.5169
 118        2.5169
 119        2.6582
 120        2.6605
 121        2.6605
 122        2.6605
 123        2.6605
 124        2.6627
 125        2.7993
 126        2.7993
 127        2.8025
 128        2.8027
 129        2.8030
 130        2.8031
 131        2.8031
 132        2.8031
 133        2.8032
 134        2.8036
 135        2.8070
 136        2.8070
 137        2.8150
 138        2.8154
 139        3.3948
 140        3.3964
 141        3.3964
 142        3.3964
 143        3.3964
 144        3.3981
 145        4.0305
 146        4.0306
 147        4.0306
 148        4.0751
 149        4.0752
 150        4.0752
 151        4.0752
 152        4.0752
 153        4.0752
 154        4.0752
 155        4.0752
 156        4.4134
 157        4.4137
 158        4.4138
 159        4.4138
 160        4.4138
 161        4.4138
 162        4.4158
 163        4.4159
 164        4.4159
 165        4.4159
 166        4.4160
 167        4.4163
 168        5.0178
 169        5.0178
 170        5.0178
 171        5.0178
 172        5.8365
 173        5.8369
 174        5.8369
 175        5.8377
 176        5.8383
 177        5.8383
 178        5.8383
 179        5.8383
 180        5.8389
 181        5.8397
 182        5.8397
 183        5.8401
 184        7.0717
 185        7.0717
 186        7.0718
 187        9.3594
 188        9.3594
 189        9.3594
 190        9.3595
 191       11.1094
 192       11.1097
 193       11.1097
 194       11.1098
 195       11.1098
 196       11.1101
 197       12.1672
 198       12.1673
 199       12.1673
 200       12.5382
 201       12.5382
 202       12.5416
 203       12.5416
 204       12.5422
 205       12.5422
 206       12.5423
 207       12.5424
 208       12.5429
 209       12.5429
 210       12.5463
 211       12.5463
 212       14.9187
 213       14.9192
 214       14.9204
 215       14.9204
 216       14.9218
 217       14.9218
 218       14.9219
 219       14.9219
 220       14.9233
 221       14.9233
 222       14.9245
 223       14.9249
 224       15.7188
 
  0.8333333E-01  0.0000000E+00  0.0000000E+00  0.1157407E-02
   1       -4.0122
   2       -1.8501
   3       -1.5493
   4       -1.5493
   5       -1.5493
   6       -1.5493
   7       -1.4801
   8       -1.4801
   9       -1.4801
  10       -1.4801
  11       -1.3249
  12       -1.2533
  13       -1.2468
  14       -1.2468
  15       -0.9310
  16       -0.9270
  17       -0.9270
  18       -0.3185
  19       -0.3184
  20       -0.3184
  21       -0.3184
  22       -0.2705
  23       -0.2705
  24       -0.2704
  25       -0.2704
  26       -0.1480
  27       -0.1478
  28       -0.1120
  29       -0.1120
  30       -0.1120
  31       -0.1120
  32       -0.1079
  33       -0.1079
  34       -0.1079
  35       -0.1077
  36       -0.0946
  37        0.0495
  38        0.0495
  39        0.0495
  40        0.0495
  41        0.1835
  42        0.4688
  43        0.4688
  44        0.6069
  45        0.6071
  46        0.6071
  47        0.6071
  48        0.6994
  49        0.7001
  50        0.7001
  51        0.7001
  52        0.7132
  53        0.7133
  54        0.7133
  55        0.7136
  56        0.7187
  57        0.7188
  58        0.7188
  59        0.7189
  60        0.7321
  61        0.7321
  62        0.7321
  63        0.7327
  64        0.9407
  65        0.9408
  66        0.9408
  67        0.9408
  68        1.0133
  69        1.0133
  70        1.0453
  71        1.0462
  72        1.0462
  73        1.0463
  74        1.0542
  75        1.0542
  76        1.0542
  77        1.0553
  78        1.1742
  79        1.1742
  80        1.1742
  81        1.1743
  82        1.1893
  83        1.1893
  84        1.1893
  85        1.1893
  86        1.2086
  87        1.2293
  88        1.2293
  89        1.8995
  90        1.8996
  91        1.8996
  92        1.8996
  93        1.9441
  94        2.0520
  95        2.1351
  96        2.1353
  97        2.1353
  98        2.1353
  99        2.1817
 100        2.1817
 101        2.1817
 102        2.1817
 103        2.2368
 104        2.2368
 105        2.2369
 106        2.2369
 107        2.3209
 108        2.3209
 109        2.5128
 110        2.5128
 111        2.5129
 112        2.5129
 113        2.5592
 114        2.5592
 115        2.5592
 116        2.5592
 117        2.6655
 118        2.6655
 119        2.6655
 120        2.6656
 121        2.6945
 122        2.6947
 123        2.7085
 124        2.7085
 125        2.7091
 126        2.7091
 127        2.7159
 128        2.7159
 129        2.8029
 130        2.8196
 131        2.8546
 132        2.8547
 133        2.8547
 134        2.8548
 135        2.9196
 136        2.9196
 137        2.9197
 138        2.9197
 139        3.3177
 140        3.4107
 141        3.4107
 142        3.4107
 143        3.4107
 144        3.4760
 145        3.9634
 146        3.9634
 147        3.9634
 148        3.9634
 149        4.0133
 150        4.0133
 151        4.0249
 152        4.0606
 153        4.0606
 154        4.0606
 155        4.0606
 156        4.3260
 157        4.3260
 158        4.3926
 159        4.3926
 160        4.3929
 161        4.3929
 162        4.3929
 163        4.3929
 164        4.4134
 165        4.4138
 166        4.4158
 167        4.4163
 168        5.0935
 169        5.0935
 170        5.0935
 171        5.0935
 172        5.5345
 173        5.5345
 174        5.5345
 175        5.5345
 176        5.8359
 177        5.8359
 178        5.8359
 179        5.8359
 180        6.1604
 181        6.1604
 182        6.1604
 183        6.1605
 184        6.9156
 185        7.1735
 186        7.1735
 187        9.4209
 188        9.4209
 189        9.4209
 190        9.4209
 191       10.9162
 192       10.9162
 193       10.9162
 194       10.9162
 195       11.1243
 196       11.1244
 197       12.0065
 198       12.0065
 199       12.1456
 200       12.1456
 201       12.3585
 202       12.5826
 203       12.5826
 204       12.5826
 205       12.5826
 206       12.6461
 207       12.6461
 208       12.6461
 209       12.6462
 210       13.0648
 211       13.0648
 212       14.5914
 213       14.5917
 214       14.5917
 215       14.5917
 216       14.6035
 217       14.6036
 218       14.6036
 219       14.6038
 220       15.2927
 221       15.2927
 222       15.2927
 223       15.2927
 224       15.7262
 
  0.1666667E+00  0.0000000E+00  0.0000000E+00  0.1157407E-02
   1       -3.9496
   2       -2.1586
   3       -1.5042
   4       -1.5041
   5       -1.5041
   6       -1.5041
   7       -1.4442
   8       -1.4442
   9       -1.4442
  10       -1.4442
  11       -1.2309
  12       -1.2045
  13       -1.2045
  14       -1.1507
  15       -0.9078
  16       -0.8916
  17       -0.8916
  18       -0.4469
  19       -0.4469
  20       -0.4469
  21       -0.4469
  22       -0.4163
  23       -0.4163
  24       -0.4162
  25       -0.4162
  26       -0.2300
  27       -0.2300
  28       -0.2266
  29       -0.0770
  30       -0.0769
  31       -0.0769
  32       -0.0769
  33       -0.0271
  34       -0.0271
  35       -0.0271
  36       -0.0270
  37        0.0692
  38        0.0692
  39        0.0693
  40        0.0693
  41        0.2279
  42        0.2279
  43        0.3251
  44        0.5453
  45        0.5454
  46        0.5454
  47        0.5454
  48        0.6840
  49        0.6840
  50        0.6840
  51        0.6841
  52        0.7282
  53        0.7294
  54        0.7294
  55        0.7295
  56        0.7355
  57        0.7356
  58        0.7356
  59        0.7368
  60        0.8100
  61        0.8101
  62        0.8101
  63        0.8102
  64        0.8395
  65        0.8395
  66        0.8395
  67        0.8396
  68        1.0730
  69        1.0730
  70        1.0731
  71        1.0731
  72        1.1584
  73        1.1584
  74        1.1584
  75        1.1585
  76        1.1661
  77        1.1662
  78        1.1662
  79        1.1662
  80        1.1754
  81        1.2186
  82        1.2186
  83        1.2186
  84        1.2187
  85        1.2581
  86        1.2581
  87        1.3152
  88        1.3152
  89        1.7749
  90        1.7750
  91        1.7750
  92        1.7750
  93        1.9934
  94        2.0255
  95        2.0256
  96        2.0256
  97        2.0256
  98        2.1399
  99        2.1399
 100        2.2319
 101        2.2324
 102        2.2324
 103        2.2324
 104        2.2556
 105        2.3290
 106        2.3290
 107        2.3290
 108        2.3291
 109        2.5113
 110        2.5113
 111        2.5113
 112        2.5113
 113        2.6367
 114        2.6367
 115        2.6370
 116        2.6370
 117        2.6461
 118        2.6463
 119        2.6464
 120        2.6464
 121        2.6788
 122        2.6789
 123        2.6789
 124        2.6789
 125        2.7672
 126        2.7903
 127        2.7903
 128        2.8340
 129        2.9237
 130        2.9237
 131        2.9774
 132        2.9774
 133        2.9774
 134        2.9774
 135        3.0576
 136        3.0576
 137        3.0577
 138        3.0577
 139        3.2413
 140        3.4612
 141        3.4612
 142        3.4612
 143        3.4612
 144        3.5551
 145        3.7021
 146        3.7021
 147        3.7021
 148        3.7021
 149        3.9620
 150        3.9620
 151        4.0080
 152        4.0174
 153        4.0174
 154        4.0174
 155        4.0175
 156        4.0953
 157        4.0953
 158        4.3256
 159        4.3256
 160        4.3257
 161        4.3257
 162        4.3302
 163        4.3302
 164        4.4135
 165        4.4139
 166        4.4157
 167        4.4162
 168        5.2433
 169        5.2433
 170        5.2435
 171        5.2436
 172        5.2492
 173        5.2492
 174        5.2495
 175        5.2495
 176        5.8282
 177        5.8282
 178        5.8282
 179        5.8282
 180        6.5046
 181        6.5077
 182        6.5077
 183        6.5077
 184        6.5078
 185        7.4460
 186        7.4460
 187        9.6028
 188        9.6028
 189        9.6028
 190        9.6028
 191       10.4700
 192       10.4700
 193       10.4700
 194       10.4701
 195       11.1678
 196       11.1678
 197       11.4622
 198       11.4622
 199       12.0826
 200       12.0826
 201       12.7019
 202       12.7019
 203       12.7019
 204       12.7019
 205       12.8423
 206       12.8425
 207       12.8425
 208       12.8425
 209       12.8750
 210       13.5693
 211       13.5693
 212       13.9754
 213       13.9754
 214       13.9755
 215       13.9755
 216       14.3010
 217       14.3010
 218       14.3010
 219       14.3010
 220       15.6065
 221       15.6071
 222       15.6123
 223       15.6178
 224       15.7059
 
  0.2500000E+00  0.0000000E+00  0.0000000E+00  0.1157407E-02
   1       -3.8460
   2       -2.4704
   3       -1.4303
   4       -1.4303
   5       -1.4303
   6       -1.4302
   7       -1.3846
   8       -1.3846
   9       -1.3846
  10       -1.3846
  11       -1.1954
  12       -1.1352
  13       -1.1351
  14       -1.0487
  15       -0.8693
  16       -0.8326
  17       -0.8326
  18       -0.5926
  19       -0.5926
  20       -0.5922
  21       -0.5921
  22       -0.5893
  23       -0.5892
  24       -0.5888
  25       -0.5888
  26       -0.3515
  27       -0.3507
  28       -0.3507
  29       -0.0272
  30       -0.0272
  31       -0.0272
  32       -0.0271
  33        0.0086
  34        0.0086
  35        0.0499
  36        0.0499
  37        0.0499
  38        0.0500
  39        0.1017
  40        0.1017
  41        0.1017
  42        0.1017
  43        0.4651
  44        0.4767
  45        0.4767
  46        0.4767
  47        0.4767
  48        0.6321
  49        0.6321
  50        0.6321
  51        0.6322
  52        0.7234
  53        0.7234
  54        0.7234
  55        0.7234
  56        0.7396
  57        0.7407
  58        0.7407
  59        0.7407
  60        0.7482
  61        0.7483
  62        0.7483
  63        0.7494
  64        0.8798
  65        0.8798
  66        0.8798
  67        0.8799
  68        1.0908
  69        1.0909
  70        1.0909
  71        1.0909
  72        1.1210
  73        1.1334
  74        1.1334
  75        1.1334
  76        1.1335
  77        1.2671
  78        1.2671
  79        1.2671
  80        1.2672
  81        1.3059
  82        1.3059
  83        1.3859
  84        1.3859
  85        1.3859
  86        1.3859
  87        1.6314
  88        1.6314
  89        1.6319
  90        1.6319
  91        1.6359
  92        1.6359
  93        1.8942
  94        1.8942
  95        1.8942
  96        1.8942
  97        1.9721
  98        1.9721
  99        2.0811
 100        2.3179
 101        2.3179
 102        2.3179
 103        2.3179
 104        2.4353
 105        2.4353
 106        2.4353
 107        2.4353
 108        2.5094
 109        2.5094
 110        2.5094
 111        2.5094
 112        2.5724
 113        2.5847
 114        2.5847
 115        2.5847
 116        2.5847
 117        2.6937
 118        2.6939
 119        2.6939
 120        2.6939
 121        2.7086
 122        2.7086
 123        2.7086
 124        2.7087
 125        2.7091
 126        2.8576
 127        2.9321
 128        2.9321
 129        3.1295
 130        3.1296
 131        3.1296
 132        3.1296
 133        3.1357
 134        3.1357
 135        3.1684
 136        3.2142
 137        3.2142
 138        3.2143
 139        3.2143
 140        3.3775
 141        3.3775
 142        3.3775
 143        3.3776
 144        3.5644
 145        3.5644
 146        3.5644
 147        3.5644
 148        3.6323
 149        3.7809
 150        3.7809
 151        3.8777
 152        3.8777
 153        3.9470
 154        3.9470
 155        3.9470
 156        3.9470
 157        3.9802
 158        4.2194
 159        4.2194
 160        4.2194
 161        4.2194
 162        4.2297
 163        4.2298
 164        4.4136
 165        4.4141
 166        4.4156
 167        4.4161
 168        4.9618
 169        4.9618
 170        4.9618
 171        4.9619
 172        5.4058
 173        5.4058
 174        5.4058
 175        5.4058
 176        5.8140
 177        5.8141
 178        5.8141
 179        5.8141
 180        5.9473
 181        6.8871
 182        6.8871
 183        6.8871
 184        6.8871
 185        7.8298
 186        7.8298
 187        9.8976
 188        9.8976
 189        9.8978
 190        9.8978
 191        9.9272
 192        9.9272
 193        9.9273
 194        9.9273
 195       10.9137
 196       10.9137
 197       11.2388
 198       11.2389
 199       11.9849
 200       11.9849
 201       12.8948
 202       12.8948
 203       12.8948
 204       12.8948
 205       13.0254
 206       13.0254
 207       13.0254
 208       13.0254
 209       13.2861
 210       13.2861
 211       13.2862
 212       13.2862
 213       13.6092
 214       14.0477
 215       14.0477
 216       14.0478
 217       14.0478
 218       14.0506
 219       14.0506
 220       15.1299
 221       15.1300
 222       15.1300
 223       15.1300
 224       15.7854
 
  0.3333333E+00  0.0000000E+00  0.0000000E+00  0.1157407E-02
   1       -3.7023
   2       -2.7711
   3       -1.3299
   4       -1.3298
   5       -1.3298
   6       -1.3298
   7       -1.3019
   8       -1.3019
   9       -1.3019
  10       -1.3019
  11       -1.1501
  12       -1.0408
  13       -1.0408
  14       -1.0100
  15       -0.8159
  16       -0.7629
  17       -0.7629
  18       -0.7627
  19       -0.7627
  20       -0.7501
  21       -0.7501
  22       -0.7486
  23       -0.7486
  24       -0.7485
  25       -0.7485
  26       -0.4933
  27       -0.4933
  28       -0.4674
  29       -0.1886
  30       -0.1886
  31        0.0375
  32        0.0376
  33        0.0376
  34        0.0376
  35        0.1176
  36        0.1176
  37        0.1176
  38        0.1176
  39        0.1457
  40        0.1458
  41        0.1458
  42        0.1458
  43        0.4044
  44        0.4045
  45        0.4045
  46        0.4045
  47        0.5710
  48        0.5710
  49        0.5710
  50        0.5711
  51        0.6010
  52        0.6088
  53        0.6088
  54        0.6088
  55        0.6089
  56        0.7462
  57        0.7470
  58        0.7470
  59        0.7471
  60        0.7580
  61        0.7580
  62        0.7580
  63        0.7589
  64        0.9305
  65        0.9305
  66        0.9305
  67        0.9305
  68        1.0471
  69        1.1006
  70        1.1006
  71        1.1006
  72        1.1007
  73        1.1241
  74        1.1241
  75        1.1241
  76        1.1242
  77        1.3341
  78        1.3341
  79        1.3341
  80        1.3341
  81        1.3725
  82        1.3725
  83        1.4928
  84        1.4928
  85        1.4928
  86        1.4928
  87        1.6684
  88        1.6684
  89        1.6684
  90        1.6685
  91        1.7609
  92        1.7609
  93        1.7609
  94        1.7609
  95        1.8189
  96        1.8189
  97        1.9724
  98        1.9724
  99        2.1902
 100        2.4193
 101        2.4193
 102        2.4194
 103        2.4194
 104        2.5082
 105        2.5082
 106        2.5082
 107        2.5083
 108        2.5353
 109        2.5353
 110        2.5353
 111        2.5353
 112        2.5492
 113        2.5492
 114        2.5492
 115        2.5492
 116        2.6304
 117        2.7028
 118        2.7029
 119        2.7030
 120        2.7030
 121        2.7194
 122        2.7194
 123        2.7195
 124        2.7195
 125        2.8901
 126        2.9947
 127        3.0287
 128        3.0287
 129        3.0287
 130        3.0287
 131        3.0989
 132        3.1014
 133        3.1022
 134        3.2903
 135        3.2903
 136        3.2903
 137        3.2903
 138        3.3475
 139        3.3475
 140        3.3849
 141        3.3849
 142        3.3850
 143        3.3850
 144        3.4267
 145        3.4267
 146        3.7062
 147        3.7254
 148        3.7254
 149        3.7254
 150        3.7255
 151        3.7629
 152        3.7630
 153        3.8516
 154        3.8516
 155        3.8516
 156        3.8517
 157        3.9422
 158        4.0814
 159        4.0814
 160        4.0815
 161        4.0815
 162        4.0961
 163        4.0961
 164        4.4137
 165        4.4143
 166        4.4153
 167        4.4159
 168        4.6879
 169        4.6879
 170        4.6879
 171        4.6879
 172        5.3259
 173        5.5357
 174        5.5357
 175        5.5357
 176        5.5357
 177        5.7914
 178        5.7914
 179        5.7914
 180        5.7915
 181        7.3045
 182        7.3045
 183        7.3045
 184        7.3045
 185        8.2802
 186        8.2802
 187        9.3587
 188        9.3587
 189        9.3587
 190        9.3587
 191       10.2940
 192       10.2940
 193       10.2940
 194       10.2940
 195       10.3654
 196       10.3654
 197       11.3350
 198       11.3350
 199       11.8619
 200       11.8619
 201       12.6010
 202       12.6011
 203       12.6011
 204       12.6011
 205       13.1536
 206       13.1536
 207       13.1536
 208       13.1536
 209       13.1819
 210       13.1819
 211       13.1820
 212       13.1820
 213       13.8290
 214       13.8290
 215       13.8290
 216       13.8290
 217       14.4811
 218       14.5032
 219       14.5032
 220       14.6712
 221       14.6713
 222       14.6713
 223       14.6713
 224       15.8437
 
  0.4166667E+00  0.0000000E+00  0.0000000E+00  0.1157407E-02
   1       -3.5201
   2       -3.0505
   3       -1.2062
   4       -1.2062
   5       -1.2062
   6       -1.2061
   7       -1.1969
   8       -1.1969
   9       -1.1968
  10       -1.1968
  11       -1.0998
  12       -1.0172
  13       -0.9253
  14       -0.9250
  15       -0.9250
  16       -0.9249
  17       -0.9243
  18       -0.9241
  19       -0.9086
  20       -0.9086
  21       -0.9086
  22       -0.9084
  23       -0.7483
  24       -0.6444
  25       -0.6444
  26       -0.6434
  27       -0.6434
  28       -0.5730
  29       -0.3634
  30       -0.3634
  31        0.1081
  32        0.1083
  33        0.1083
  34        0.1083
  35        0.1641
  36        0.1641
  37        0.1641
  38        0.1642
  39        0.2001
  40        0.2001
  41        0.2001
  42        0.2002
  43        0.3321
  44        0.3322
  45        0.3322
  46        0.3322
  47        0.5128
  48        0.5132
  49        0.5132
  50        0.5133
  51        0.5179
  52        0.5180
  53        0.5180
  54        0.5184
  55        0.7297
  56        0.7523
  57        0.7534
  58        0.7534
  59        0.7535
  60        0.7607
  61        0.7608
  62        0.7608
  63        0.7621
  64        0.9556
  65        0.9760
  66        0.9760
  67        0.9760
  68        0.9761
  69        1.0621
  70        1.0621
  71        1.0622
  72        1.0622
  73        1.1807
  74        1.1807
  75        1.1807
  76        1.1808
  77        1.3676
  78        1.3677
  79        1.3677
  80        1.3678
  81        1.4187
  82        1.4187
  83        1.4187
  84        1.4187
  85        1.4577
  86        1.4577
  87        1.6344
  88        1.6344
  89        1.6344
  90        1.6344
  91        1.6816
  92        1.6816
  93        1.9854
  94        1.9854
  95        1.9854
  96        1.9854
  97        2.3081
  98        2.3241
  99        2.3241
 100        2.5093
 101        2.5093
 102        2.5093
 103        2.5093
 104        2.5214
 105        2.5216
 106        2.5216
 107        2.5216
 108        2.5270
 109        2.5270
 110        2.5271
 111        2.5271
 112        2.5346
 113        2.6155
 114        2.6155
 115        2.6155
 116        2.6155
 117        2.6734
 118        2.6736
 119        2.6736
 120        2.6737
 121        2.6830
 122        2.6831
 123        2.6831
 124        2.6832
 125        2.6974
 126        2.6974
 127        2.6974
 128        2.6975
 129        2.9313
 130        3.0368
 131        3.0575
 132        3.0575
 133        3.2812
 134        3.2813
 135        3.4488
 136        3.4488
 137        3.4488
 138        3.4488
 139        3.5032
 140        3.5548
 141        3.5548
 142        3.5642
 143        3.5642
 144        3.5642
 145        3.5642
 146        3.6212
 147        3.6212
 148        3.7342
 149        3.7342
 150        3.7342
 151        3.7342
 152        3.7755
 153        3.8946
 154        3.9203
 155        3.9203
 156        3.9205
 157        3.9205
 158        3.9320
 159        3.9320
 160        3.9321
 161        3.9322
 162        3.9352
 163        3.9352
 164        4.4138
 165        4.4145
 166        4.4151
 167        4.4159
 168        4.4223
 169        4.4223
 170        4.4223
 171        4.4223
 172        4.6916
 173        5.6347
 174        5.6347
 175        5.6347
 176        5.6347
 177        5.7571
 178        5.7571
 179        5.7571
 180        5.7571
 181        7.7631
 182        7.7631
 183        7.7631
 184        7.7631
 185        8.7712
 186        8.7712
 187        8.7977
 188        8.7977
 189        8.7978
 190        8.7978
 191        9.8218
 192        9.8218
 193       10.7771
 194       10.7771
 195       10.7771
 196       10.7771
 197       11.4524
 198       11.4524
 199       11.7248
 200       11.7249
 201       11.9446
 202       11.9446
 203       11.9446
 204       11.9446
 205       13.3269
 206       13.3269
 207       13.3269
 208       13.3269
 209       13.4695
 210       13.4695
 211       13.4695
 212       13.4695
 213       13.6404
 214       13.6404
 215       13.6404
 216       13.6404
 217       14.2367
 218       14.2367
 219       14.2367
 220       14.2367
 221       14.9217
 222       14.9217
 223       15.4434
 224       15.6324
 
  0.5000000E+00  0.0000000E+00  0.0000000E+00  0.5787037E-03
   1       -3.3036
   2       -3.2999
   3       -1.0728
   4       -1.0728
   5       -1.0726
   6       -1.0718
   7       -1.0697
   8       -1.0694
   9       -1.0688
  10       -1.0688
  11       -1.0671
  12       -1.0649
  13       -1.0643
  14       -1.0643
  15       -1.0627
  16       -1.0627
  17       -1.0625
  18       -1.0599
  19       -1.0528
  20       -1.0505
  21       -0.7921
  22       -0.7909
  23       -0.7887
  24       -0.7875
  25       -0.6686
  26       -0.6654
  27       -0.5170
  28       -0.5170
  29       -0.5137
  30       -0.5137
  31        0.1589
  32        0.1621
  33        0.1621
  34        0.1622
  35        0.1622
  36        0.1623
  37        0.1623
  38        0.1654
  39        0.2608
  40        0.2614
  41        0.2614
  42        0.2627
  43        0.2635
  44        0.2647
  45        0.2647
  46        0.2653
  47        0.4824
  48        0.4830
  49        0.4830
  50        0.4838
  51        0.4840
  52        0.4849
  53        0.4849
  54        0.4855
  55        0.7553
  56        0.7578
  57        0.7578
  58        0.7582
  59        0.7589
  60        0.7594
  61        0.7594
  62        0.7618
  63        0.8486
  64        0.8496
  65        1.0191
  66        1.0196
  67        1.0196
  68        1.0196
  69        1.0205
  70        1.0205
  71        1.0205
  72        1.0210
  73        1.2610
  74        1.2610
  75        1.2612
  76        1.2622
  77        1.2629
  78        1.2637
  79        1.2640
  80        1.2640
  81        1.5166
  82        1.5173
  83        1.5173
  84        1.5190
  85        1.5198
  86        1.5214
  87        1.5214
  88        1.5221
  89        1.5594
  90        1.5594
  91        1.5625
  92        1.5625
  93        2.3218
  94        2.3224
  95        2.3228
  96        2.3228
  97        2.3236
  98        2.3236
  99        2.3240
 100        2.3246
 101        2.4242
 102        2.4261
 103        2.5139
 104        2.5139
 105        2.5144
 106        2.5147
 107        2.5149
 108        2.5151
 109        2.5155
 110        2.5155
 111        2.6110
 112        2.6124
 113        2.6124
 114        2.6126
 115        2.6136
 116        2.6138
 117        2.6138
 118        2.6152
 119        2.6680
 120        2.6685
 121        2.6692
 122        2.6692
 123        2.6698
 124        2.6698
 125        2.6707
 126        2.6712
 127        2.6864
 128        2.6864
 129        2.6886
 130        2.6886
 131        2.9791
 132        2.9817
 133        3.4576
 134        3.4577
 135        3.4583
 136        3.4584
 137        3.5969
 138        3.5976
 139        3.5976
 140        3.5980
 141        3.5991
 142        3.5994
 143        3.5994
 144        3.6003
 145        3.7431
 146        3.7431
 147        3.7449
 148        3.7450
 149        3.7456
 150        3.7457
 151        3.7471
 152        3.7471
 153        3.7521
 154        3.7521
 155        3.7533
 156        3.7533
 157        3.8385
 158        3.8389
 159        4.0755
 160        4.0766
 161        4.1667
 162        4.1675
 163        4.1675
 164        4.1681
 165        4.1683
 166        4.1689
 167        4.1689
 168        4.1697
 169        4.4138
 170        4.4148
 171        4.4148
 172        4.4158
 173        5.7048
 174        5.7053
 175        5.7059
 176        5.7059
 177        5.7073
 178        5.7073
 179        5.7079
 180        5.7084
 181        8.2598
 182        8.2598
 183        8.2619
 184        8.2620
 185        8.2630
 186        8.2631
 187        8.2651
 188        8.2651
 189        9.2866
 190        9.2866
 191        9.2899
 192        9.2899
 193       11.3290
 194       11.3290
 195       11.3311
 196       11.3313
 197       11.3327
 198       11.3329
 199       11.3351
 200       11.3351
 201       11.5847