       N       E                     dE             d eps       ncg     rms          rms(c)
DAV:   1     0.483652436096E+04    0.48365E+04   -0.21050E+05 87808   0.215E+03
DAV:   2     0.140217529285E+03   -0.46963E+04   -0.44589E+04 87808   0.556E+02
DAV:   3    -0.104604872738E+03   -0.24482E+03   -0.23043E+03 96400   0.146E+02
DAV:   4    -0.110337082165E+03   -0.57322E+01   -0.56793E+01 95776   0.205E+01
DAV:   5    -0.110400636133E+03   -0.63554E-01   -0.63521E-01 94432   0.190E+00    0.166E+01
DAV:   6    -0.103115770255E+03    0.72849E+01   -0.16396E+01 96240   0.144E+01    0.481E+00
DAV:   7    -0.102443734213E+03    0.67204E+00   -0.15249E+00 99696   0.379E+00    0.162E+00
DAV:   8    -0.102327668894E+03    0.11607E+00   -0.72703E-02 93504   0.932E-01    0.153E-01
DAV:   9    -0.102327782108E+03   -0.11321E-03   -0.46083E-03100432   0.213E-01    0.811E-02
DAV:  10    -0.102327828327E+03   -0.46218E-04   -0.40142E-04 93680   0.582E-02    0.105E-02
DAV:  11    -0.102327837268E+03   -0.89416E-05   -0.11666E-05 95968   0.139E-02    0.215E-03
DAV:  12    -0.102327842905E+03   -0.56368E-05   -0.54853E-07 94752   0.260E-03    0.125E-03
DAV:  13    -0.102327841081E+03    0.18239E-05   -0.43088E-08 88112   0.861E-04    0.477E-04
DAV:  14    -0.102327840191E+03    0.89037E-06   -0.12195E-08 54272   0.382E-04    0.874E-05
DAV:  15    -0.102327840175E+03    0.15949E-07   -0.14892E-09 51904   0.164E-04    0.398E-05
DAV:  16    -0.102327840192E+03   -0.17648E-07   -0.16749E-10 51888   0.628E-05    0.195E-05
DAV:  17    -0.102327840190E+03    0.21428E-08    0.68838E-11 51504   0.265E-05
   1 F= -.10232784E+03 E0= -.10232740E+03  d E =-.883495E-03
