 vasp.4.6.28 25Jul05 complex 
 executed on             LinuxIFC date 2017.01.13  21:57:16
 running on   16 nodes
 distr:  one band on    1 nodes,   16 groups


--------------------------------------------------------------------------------------------------------


 INCAR:
 POTCAR:   PAW_PBE Au 06Sep2000                   
 POTCAR:   PAW_PBE Au 06Sep2000                   
   VRHFIN =Au: s1d10                                                            
   LEXCH  = PE                                                                  
   EATOM  =   926.0567 eV,   68.0632 Ry                                         
                                                                                
   TITEL  = PAW_PBE Au 06Sep2000                                                
   LULTRA =        F    use ultrasoft PP ?                                      
   IUNSCR =        1    unscreen: 0-lin 1-nonlin 2-no                           
   RPACOR =    2.330    partial core radius                                     
   POMASS =  196.966; ZVAL   =   11.000    mass and valenz                      
   RCORE  =    2.500    outmost cutoff radius                                   
   RWIGS  =    2.840; RWIGS  =    1.503    wigner-seitz radius (au A)           
   ENMAX  =  229.948; ENMIN  =  172.461 eV                                      
   RCLOC  =    1.964    cutoff for local pot                                    
   LCOR   =        T    correct aug charges                                     
   LPAW   =        T    paw PP                                                  
   EAUG   =  356.670                                                            
   DEXC   =    -.025                                                            
   RMAX   =    3.041    core radius for proj-oper                               
   RAUG   =    1.300    factor for augmentation sphere                          
   RDEP   =    2.598    radius for radial grids                                 
   QCUT   =   -4.111; QGAM   =    8.222    optimization parameters              
                                                                                
   Description                                                                  
     l     E      TYP  RCUT    TYP  RCUT                                        
     2   .000     23  2.500                                                     
     2   .000     23  2.500                                                     
     0   .000     23  2.500                                                     
     0   .000     23  2.500                                                     
     1  -.200     23  2.500                                                     
     1   .000     23  2.500                                                     
     3   .000      7   .000                                                     
  local pseudopotential read in
  partial core-charges read in
  atomic valenz-charges read in
  non local Contribution for L=           2  read in
    real space projection operators read in
  non local Contribution for L=           2  read in
    real space projection operators read in
  non local Contribution for L=           0  read in
    real space projection operators read in
  non local Contribution for L=           0  read in
    real space projection operators read in
  non local Contribution for L=           1  read in
    real space projection operators read in
  non local Contribution for L=           1  read in
    real space projection operators read in
    PAW grid and wavefunctions read in
 
   number of l-projection  operators is LMAX  =           6
   number of lm-projection operators is LMMAX =          18
 

 ----------------------------------------------------------------------------- 
|                                                                             |
|  ADVICE TO THIS USER RUNNING 'VASP/VAMP'   (HEAR YOUR MASTER'S VOICE ...):  |
|                                                                             |
|      You have a (more or less) 'large supercell' and for larger cells       |
|      it might be more efficient to use real space projection operators      |
|      So try LREAL= Auto  in the INCAR   file.                               |
|      Mind: If you want to do an extremely accurate calculations keep the    |
|      reciprocal projection scheme          (i.e. LREAL=.FALSE.)             |
|                                                                             |
 ----------------------------------------------------------------------------- 

 PAW_PBE Au 06Sep2000                   :
 energy of atom  1       EATOM= -926.0567
 kinetic energy error for atom=    0.0008 (will be added to EATOM!!)
 
 EXHCAR: internal setup
 exchange correlation table for  LEXCH =        8
   RHO(1)=    0.500       N(1)  =     2000
   RHO(2)=  100.500       N(2)  =     4000
 
 POSCAR: Au                                      
  positions in direct lattice
  No initial velocities read in
 


--------------------------------------------------------------------------------------------------------


 ion  position               nearest neighbor table
   1  0.001  0.000  0.000-   9 2.86  11 2.86  17 2.86  21 2.86  25 2.86  27 2.86  29 2.86  31 2.86
                            10 2.87  18 2.87  12 2.87  22 2.87
   2  0.500  0.000  0.000-   9 2.86  10 2.86  11 2.86  12 2.86  17 2.86  18 2.86  21 2.86  22 2.86
                            26 2.86  28 2.86  30 2.86  32 2.86
   3  0.000  0.500  0.000-   9 2.86  10 2.86  11 2.86  12 2.86  19 2.86  20 2.86  23 2.86  24 2.86
                            25 2.86  27 2.86  29 2.86  31 2.86
   4  0.500  0.500  0.000-   9 2.86  10 2.86  11 2.86  12 2.86  19 2.86  20 2.86  23 2.86  24 2.86
                            26 2.86  28 2.86  30 2.86  32 2.86
   5  0.000  0.000  0.500-  13 2.86  14 2.86  15 2.86  16 2.86  17 2.86  18 2.86  21 2.86  22 2.86
                            25 2.86  27 2.86  29 2.86  31 2.86
   6  0.500  0.000  0.500-  13 2.86  14 2.86  15 2.86  16 2.86  17 2.86  18 2.86  21 2.86  22 2.86
                            26 2.86  28 2.86  30 2.86  32 2.86
   7  0.000  0.500  0.500-  13 2.86  14 2.86  15 2.86  16 2.86  19 2.86  20 2.86  23 2.86  24 2.86
                            25 2.86  27 2.86  29 2.86  31 2.86
   8  0.500  0.500  0.500-  13 2.86  14 2.86  15 2.86  16 2.86  19 2.86  20 2.86  23 2.86  24 2.86
                            26 2.86  28 2.86  30 2.86  32 2.86
   9  0.250  0.250  0.000-   1 2.86   2 2.86   3 2.86   4 2.86  17 2.86  19 2.86  21 2.86  23 2.86
                            25 2.86  26 2.86  29 2.86  30 2.86
  10  0.750  0.250  0.000-   2 2.86   3 2.86   4 2.86  18 2.86  20 2.86  22 2.86  24 2.86  25 2.86
                            26 2.86  29 2.86  30 2.86   1 2.87
  11  0.250  0.750  0.000-   1 2.86   2 2.86   3 2.86   4 2.86  17 2.86  19 2.86  21 2.86  23 2.86
                            27 2.86  28 2.86  31 2.86  32 2.86
  12  0.750  0.750  0.000-   2 2.86   3 2.86   4 2.86  18 2.86  20 2.86  22 2.86  24 2.86  27 2.86
                            28 2.86  31 2.86  32 2.86   1 2.87
  13  0.250  0.250  0.500-   5 2.86   6 2.86   7 2.86   8 2.86  17 2.86  19 2.86  21 2.86  23 2.86
                            25 2.86  26 2.86  29 2.86  30 2.86
  14  0.750  0.250  0.500-   5 2.86   6 2.86   7 2.86   8 2.86  18 2.86  20 2.86  22 2.86  24 2.86
                            25 2.86  26 2.86  29 2.86  30 2.86
  15  0.250  0.750  0.500-   5 2.86   6 2.86   7 2.86   8 2.86  17 2.86  19 2.86  21 2.86  23 2.86
                            27 2.86  28 2.86  31 2.86  32 2.86
  16  0.750  0.750  0.500-   5 2.86   6 2.86   7 2.86   8 2.86  18 2.86  20 2.86  22 2.86  24 2.86
                            27 2.86  28 2.86  31 2.86  32 2.86
  17  0.250  0.000  0.250-   1 2.86   2 2.86   5 2.86   6 2.86   9 2.86  11 2.86  13 2.86  15 2.86
                            25 2.86  26 2.86  27 2.86  28 2.86
  18  0.750  0.000  0.250-   2 2.86   5 2.86   6 2.86  10 2.86  12 2.86  14 2.86  16 2.86  25 2.86
                            26 2.86  27 2.86  28 2.86   1 2.87
  19  0.250  0.500  0.250-   3 2.86   4 2.86   7 2.86   8 2.86   9 2.86  11 2.86  13 2.86  15 2.86
                            25 2.86  26 2.86  27 2.86  28 2.86
  20  0.750  0.500  0.250-   3 2.86   4 2.86   7 2.86   8 2.86  10 2.86  12 2.86  14 2.86  16 2.86
                            25 2.86  26 2.86  27 2.86  28 2.86
  21  0.250  0.000  0.750-   1 2.86   2 2.86   5 2.86   6 2.86   9 2.86  11 2.86  13 2.86  15 2.86
                            29 2.86  30 2.86  31 2.86  32 2.86
  22  0.750  0.000  0.750-   2 2.86   5 2.86   6 2.86  10 2.86  12 2.86  14 2.86  16 2.86  29 2.86
                            30 2.86  31 2.86  32 2.86   1 2.87
  23  0.250  0.500  0.750-   3 2.86   4 2.86   7 2.86   8 2.86   9 2.86  11 2.86  13 2.86  15 2.86
                            29 2.86  30 2.86  31 2.86  32 2.86
  24  0.750  0.500  0.750-   3 2.86   4 2.86   7 2.86   8 2.86  10 2.86  12 2.86  14 2.86  16 2.86
                            29 2.86  30 2.86  31 2.86  32 2.86
  25  0.000  0.250  0.250-   3 2.86   5 2.86   7 2.86   9 2.86  10 2.86  13 2.86  14 2.86  17 2.86
                            18 2.86  19 2.86  20 2.86   1 2.86
  26  0.500  0.250  0.250-   2 2.86   4 2.86   6 2.86   8 2.86   9 2.86  10 2.86  13 2.86  14 2.86
                            17 2.86  18 2.86  19 2.86  20 2.86
  27  0.000  0.750  0.250-   3 2.86   5 2.86   7 2.86  11 2.86  12 2.86  15 2.86  16 2.86  17 2.86
                            18 2.86  19 2.86  20 2.86   1 2.86
  28  0.500  0.750  0.250-   2 2.86   4 2.86   6 2.86   8 2.86  11 2.86  12 2.86  15 2.86  16 2.86
                            17 2.86  18 2.86  19 2.86  20 2.86
  29  0.000  0.250  0.750-   3 2.86   5 2.86   7 2.86   9 2.86  10 2.86  13 2.86  14 2.86  21 2.86
                            22 2.86  23 2.86  24 2.86   1 2.86
  30  0.500  0.250  0.750-   2 2.86   4 2.86   6 2.86   8 2.86   9 2.86  10 2.86  13 2.86  14 2.86
                            21 2.86  22 2.86  23 2.86  24 2.86
  31  0.000  0.750  0.750-   3 2.86   5 2.86   7 2.86  11 2.86  12 2.86  15 2.86  16 2.86  21 2.86
                            22 2.86  23 2.86  24 2.86   1 2.86
  32  0.500  0.750  0.750-   2 2.86   4 2.86   6 2.86   8 2.86  11 2.86  12 2.86  15 2.86  16 2.86
                            21 2.86  22 2.86  23 2.86  24 2.86
 
  LATTYP: Found a simple cubic cell.
 ALAT       =     8.0953326905
  
  Lattice vectors:
  
 A1 = (   8.0953326905,   0.0000000000,   0.0000000000)
 A2 = (   0.0000000000,   8.0953326905,   0.0000000000)
 A3 = (   0.0000000000,   0.0000000000,   8.0953326905)
 Subroutine PRICEL returns:
 Original cell was already a primitive cell.
 

Analysis of symmetry for initial positions (statically):

 Routine SETGRP: Setting up the symmetry group for a 
 simple cubic supercell.


 Subroutine GETGRP returns: Found  8 space group operations
 (whereof  8 operations were pure point group operations)
 out of a pool of 48 trial point group operations.


The static configuration has the point symmetry C_4v.

Analysis of symmetry for dynamics (positions and initial velocities):

 Subroutine DYNSYM returns: Found  8 space group operations
 (whereof  8 operations were pure point group operations)
 out of a pool of  8 trial space group operations
 (whereof  8 operations were pure point group operations)
 and found also     1 'primitive' translations


The dynamic configuration has the point symmetry C_4v.
 
 
 KPOINTS: Automatic mesh                          

Automatic generation of k-mesh.
 
 Subroutine IBZKPT returns following result:
 ===========================================
 
 Found    196 irreducible k-points:
 
 Following reciprocal coordinates:
            Coordinates               Weight
  0.000000  0.000000  0.000000      1.000000
  0.083333  0.000000  0.000000      2.000000
  0.166667  0.000000  0.000000      2.000000
  0.250000  0.000000  0.000000      2.000000
  0.333333  0.000000  0.000000      2.000000
  0.416667  0.000000  0.000000      2.000000
  0.500000  0.000000  0.000000      1.000000
  0.000000  0.083333  0.000000      4.000000
  0.083333  0.083333  0.000000      8.000000
  0.166667  0.083333  0.000000      8.000000
  0.250000  0.083333  0.000000      8.000000
  0.333333  0.083333  0.000000      8.000000
  0.416667  0.083333  0.000000      8.000000
  0.500000  0.083333  0.000000      4.000000
  0.000000  0.166667  0.000000      4.000000
  0.083333  0.166667  0.000000      8.000000
  0.166667  0.166667  0.000000      8.000000
  0.250000  0.166667  0.000000      8.000000
  0.333333  0.166667  0.000000      8.000000
  0.416667  0.166667  0.000000      8.000000
  0.500000  0.166667  0.000000      4.000000
  0.000000  0.250000  0.000000      4.000000
  0.083333  0.250000  0.000000      8.000000
  0.166667  0.250000  0.000000      8.000000
  0.250000  0.250000  0.000000      8.000000
  0.333333  0.250000  0.000000      8.000000
  0.416667  0.250000  0.000000      8.000000
  0.500000  0.250000  0.000000      4.000000
  0.000000  0.333333  0.000000      4.000000
  0.083333  0.333333  0.000000      8.000000
  0.166667  0.333333  0.000000      8.000000
  0.250000  0.333333  0.000000      8.000000
  0.333333  0.333333  0.000000      8.000000
  0.416667  0.333333  0.000000      8.000000
  0.500000  0.333333  0.000000      4.000000
  0.000000  0.416667  0.000000      4.000000
  0.083333  0.416667  0.000000      8.000000
  0.166667  0.416667  0.000000      8.000000
  0.250000  0.416667  0.000000      8.000000
  0.333333  0.416667  0.000000      8.000000
  0.416667  0.416667  0.000000      8.000000
  0.500000  0.416667  0.000000      4.000000
  0.000000  0.500000  0.000000      2.000000
  0.083333  0.500000  0.000000      4.000000
  0.166667  0.500000  0.000000      4.000000
  0.250000  0.500000  0.000000      4.000000
  0.333333  0.500000  0.000000      4.000000
  0.416667  0.500000  0.000000      4.000000
  0.500000  0.500000  0.000000      2.000000
  0.000000  0.083333  0.083333      4.000000
  0.083333  0.083333  0.083333      8.000000
  0.166667  0.083333  0.083333      8.000000
  0.250000  0.083333  0.083333      8.000000
  0.333333  0.083333  0.083333      8.000000
  0.416667  0.083333  0.083333      8.000000
  0.500000  0.083333  0.083333      4.000000
  0.000000  0.166667  0.083333      8.000000
  0.083333  0.166667  0.083333     16.000000
  0.166667  0.166667  0.083333     16.000000
  0.250000  0.166667  0.083333     16.000000
  0.333333  0.166667  0.083333     16.000000
  0.416667  0.166667  0.083333     16.000000
  0.500000  0.166667  0.083333      8.000000
  0.000000  0.250000  0.083333      8.000000
  0.083333  0.250000  0.083333     16.000000
  0.166667  0.250000  0.083333     16.000000
  0.250000  0.250000  0.083333     16.000000
  0.333333  0.250000  0.083333     16.000000
  0.416667  0.250000  0.083333     16.000000
  0.500000  0.250000  0.083333      8.000000
  0.000000  0.333333  0.083333      8.000000
  0.083333  0.333333  0.083333     16.000000
  0.166667  0.333333  0.083333     16.000000
  0.250000  0.333333  0.083333     16.000000
  0.333333  0.333333  0.083333     16.000000
  0.416667  0.333333  0.083333     16.000000
  0.500000  0.333333  0.083333      8.000000
  0.000000  0.416667  0.083333      8.000000
  0.083333  0.416667  0.083333     16.000000
  0.166667  0.416667  0.083333     16.000000
  0.250000  0.416667  0.083333     16.000000
  0.333333  0.416667  0.083333     16.000000
  0.416667  0.416667  0.083333     16.000000
  0.500000  0.416667  0.083333      8.000000
  0.000000  0.500000  0.083333      4.000000
  0.083333  0.500000  0.083333      8.000000
  0.166667  0.500000  0.083333      8.000000
  0.250000  0.500000  0.083333      8.000000
  0.333333  0.500000  0.083333      8.000000
  0.416667  0.500000  0.083333      8.000000
  0.500000  0.500000  0.083333      4.000000
  0.000000  0.166667  0.166667      4.000000
  0.083333  0.166667  0.166667      8.000000
  0.166667  0.166667  0.166667      8.000000
  0.250000  0.166667  0.166667      8.000000
  0.333333  0.166667  0.166667      8.000000
  0.416667  0.166667  0.166667      8.000000
  0.500000  0.166667  0.166667      4.000000
  0.000000  0.250000  0.166667      8.000000
  0.083333  0.250000  0.166667     16.000000
  0.166667  0.250000  0.166667     16.000000
  0.250000  0.250000  0.166667     16.000000
  0.333333  0.250000  0.166667     16.000000
  0.416667  0.250000  0.166667     16.000000
  0.500000  0.250000  0.166667      8.000000
  0.000000  0.333333  0.166667      8.000000
  0.083333  0.333333  0.166667     16.000000
  0.166667  0.333333  0.166667     16.000000
  0.250000  0.333333  0.166667     16.000000
  0.333333  0.333333  0.166667     16.000000
  0.416667  0.333333  0.166667     16.000000
  0.500000  0.333333  0.166667      8.000000
  0.000000  0.416667  0.166667      8.000000
  0.083333  0.416667  0.166667     16.000000
  0.166667  0.416667  0.166667     16.000000
  0.250000  0.416667  0.166667     16.000000
  0.333333  0.416667  0.166667     16.000000
  0.416667  0.416667  0.166667     16.000000
  0.500000  0.416667  0.166667      8.000000
  0.000000  0.500000  0.166667      4.000000
  0.083333  0.500000  0.166667      8.000000
  0.166667  0.500000  0.166667      8.000000
  0.250000  0.500000  0.166667      8.000000
  0.333333  0.500000  0.166667      8.000000
  0.416667  0.500000  0.166667      8.000000
  0.500000  0.500000  0.166667      4.000000
  0.000000  0.250000  0.250000      4.000000
  0.083333  0.250000  0.250000      8.000000
  0.166667  0.250000  0.250000      8.000000
  0.250000  0.250000  0.250000      8.000000
  0.333333  0.250000  0.250000      8.000000
  0.416667  0.250000  0.250000      8.000000
  0.500000  0.250000  0.250000      4.000000
  0.000000  0.333333  0.250000      8.000000
  0.083333  0.333333  0.250000     16.000000
  0.166667  0.333333  0.250000     16.000000
  0.250000  0.333333  0.250000     16.000000
  0.333333  0.333333  0.250000     16.000000
  0.416667  0.333333  0.250000     16.000000
  0.500000  0.333333  0.250000      8.000000
  0.000000  0.416667  0.250000      8.000000
  0.083333  0.416667  0.250000     16.000000
  0.166667  0.416667  0.250000     16.000000
  0.250000  0.416667  0.250000     16.000000
  0.333333  0.416667  0.250000     16.000000
  0.416667  0.416667  0.250000     16.000000
  0.500000  0.416667  0.250000      8.000000
  0.000000  0.500000  0.250000      4.000000
  0.083333  0.500000  0.250000      8.000000
  0.166667  0.500000  0.250000      8.000000
  0.250000  0.500000  0.250000      8.000000
  0.333333  0.500000  0.250000      8.000000
  0.416667  0.500000  0.250000      8.000000
  0.500000  0.500000  0.250000      4.000000
  0.000000  0.333333  0.333333      4.000000
  0.083333  0.333333  0.333333      8.000000
  0.166667  0.333333  0.333333      8.000000
  0.250000  0.333333  0.333333      8.000000
  0.333333  0.333333  0.333333      8.000000
  0.416667  0.333333  0.333333      8.000000
  0.500000  0.333333  0.333333      4.000000
  0.000000  0.416667  0.333333      8.000000
  0.083333  0.416667  0.333333     16.000000
  0.166667  0.416667  0.333333     16.000000
  0.250000  0.416667  0.333333     16.000000
  0.333333  0.416667  0.333333     16.000000
  0.416667  0.416667  0.333333     16.000000
  0.500000  0.416667  0.333333      8.000000
  0.000000  0.500000  0.333333      4.000000
  0.083333  0.500000  0.333333      8.000000
  0.166667  0.500000  0.333333      8.000000
  0.250000  0.500000  0.333333      8.000000
  0.333333  0.500000  0.333333      8.000000
  0.416667  0.500000  0.333333      8.000000
  0.500000  0.500000  0.333333      4.000000
  0.000000  0.416667  0.416667      4.000000
  0.083333  0.416667  0.416667      8.000000
  0.166667  0.416667  0.416667      8.000000
  0.250000  0.416667  0.416667      8.000000
  0.333333  0.416667  0.416667      8.000000
  0.416667  0.416667  0.416667      8.000000
  0.500000  0.416667  0.416667      4.000000
  0.000000  0.500000  0.416667      4.000000
  0.083333  0.500000  0.416667      8.000000
  0.166667  0.500000  0.416667      8.000000
  0.250000  0.500000  0.416667      8.000000
  0.333333  0.500000  0.416667      8.000000
  0.416667  0.500000  0.416667      8.000000
  0.500000  0.500000  0.416667      4.000000
  0.000000  0.500000  0.500000      1.000000
  0.083333  0.500000  0.500000      2.000000
  0.166667  0.500000  0.500000      2.000000
  0.250000  0.500000  0.500000      2.000000
  0.333333  0.500000  0.500000      2.000000
  0.416667  0.500000  0.500000      2.000000
  0.500000  0.500000  0.500000      1.000000
 
 Following cartesian coordinates:
            Coordinates               Weight
  0.000000  0.000000  0.000000      1.000000
  0.010294  0.000000  0.000000      2.000000
  0.020588  0.000000  0.000000      2.000000
  0.030882  0.000000  0.000000      2.000000
  0.041176  0.000000  0.000000      2.000000
  0.051470  0.000000  0.000000      2.000000
  0.061764  0.000000  0.000000      1.000000
  0.000000  0.010294  0.000000      4.000000
  0.010294  0.010294  0.000000      8.000000
  0.020588  0.010294  0.000000      8.000000
  0.030882  0.010294  0.000000      8.000000
  0.041176  0.010294  0.000000      8.000000
  0.051470  0.010294  0.000000      8.000000
  0.061764  0.010294  0.000000      4.000000
  0.000000  0.020588  0.000000      4.000000
  0.010294  0.020588  0.000000      8.000000
  0.020588  0.020588  0.000000      8.000000
  0.030882  0.020588  0.000000      8.000000
  0.041176  0.020588  0.000000      8.000000
  0.051470  0.020588  0.000000      8.000000
  0.061764  0.020588  0.000000      4.000000
  0.000000  0.030882  0.000000      4.000000
  0.010294  0.030882  0.000000      8.000000
  0.020588  0.030882  0.000000      8.000000
  0.030882  0.030882  0.000000      8.000000
  0.041176  0.030882  0.000000      8.000000
  0.051470  0.030882  0.000000      8.000000
  0.061764  0.030882  0.000000      4.000000
  0.000000  0.041176  0.000000      4.000000
  0.010294  0.041176  0.000000      8.000000
  0.020588  0.041176  0.000000      8.000000
  0.030882  0.041176  0.000000      8.000000
  0.041176  0.041176  0.000000      8.000000
  0.051470  0.041176  0.000000      8.000000
  0.061764  0.041176  0.000000      4.000000
  0.000000  0.051470  0.000000      4.000000
  0.010294  0.051470  0.000000      8.000000
  0.020588  0.051470  0.000000      8.000000
  0.030882  0.051470  0.000000      8.000000
  0.041176  0.051470  0.000000      8.000000
  0.051470  0.051470  0.000000      8.000000
  0.061764  0.051470  0.000000      4.000000
  0.000000  0.061764  0.000000      2.000000
  0.010294  0.061764  0.000000      4.000000
  0.020588  0.061764  0.000000      4.000000
  0.030882  0.061764  0.000000      4.000000
  0.041176  0.061764  0.000000      4.000000
  0.051470  0.061764  0.000000      4.000000
  0.061764  0.061764  0.000000      2.000000
  0.000000  0.010294  0.010294      4.000000
  0.010294  0.010294  0.010294      8.000000
  0.020588  0.010294  0.010294      8.000000
  0.030882  0.010294  0.010294      8.000000
  0.041176  0.010294  0.010294      8.000000
  0.051470  0.010294  0.010294      8.000000
  0.061764  0.010294  0.010294      4.000000
  0.000000  0.020588  0.010294      8.000000
  0.010294  0.020588  0.010294     16.000000
  0.020588  0.020588  0.010294     16.000000
  0.030882  0.020588  0.010294     16.000000
  0.041176  0.020588  0.010294     16.000000
  0.051470  0.020588  0.010294     16.000000
  0.061764  0.020588  0.010294      8.000000
  0.000000  0.030882  0.010294      8.000000
  0.010294  0.030882  0.010294     16.000000
  0.020588  0.030882  0.010294     16.000000
  0.030882  0.030882  0.010294     16.000000
  0.041176  0.030882  0.010294     16.000000
  0.051470  0.030882  0.010294     16.000000
  0.061764  0.030882  0.010294      8.000000
  0.000000  0.041176  0.010294      8.000000
  0.010294  0.041176  0.010294     16.000000
  0.020588  0.041176  0.010294     16.000000
  0.030882  0.041176  0.010294     16.000000
  0.041176  0.041176  0.010294     16.000000
  0.051470  0.041176  0.010294     16.000000
  0.061764  0.041176  0.010294      8.000000
  0.000000  0.051470  0.010294      8.000000
  0.010294  0.051470  0.010294     16.000000
  0.020588  0.051470  0.010294     16.000000
  0.030882  0.051470  0.010294     16.000000
  0.041176  0.051470  0.010294     16.000000
  0.051470  0.051470  0.010294     16.000000
  0.061764  0.051470  0.010294      8.000000
  0.000000  0.061764  0.010294      4.000000
  0.010294  0.061764  0.010294      8.000000
  0.020588  0.061764  0.010294      8.000000
  0.030882  0.061764  0.010294      8.000000
  0.041176  0.061764  0.010294      8.000000
  0.051470  0.061764  0.010294      8.000000
  0.061764  0.061764  0.010294      4.000000
  0.000000  0.020588  0.020588      4.000000
  0.010294  0.020588  0.020588      8.000000
  0.020588  0.020588  0.020588      8.000000
  0.030882  0.020588  0.020588      8.000000
  0.041176  0.020588  0.020588      8.000000
  0.051470  0.020588  0.020588      8.000000
  0.061764  0.020588  0.020588      4.000000
  0.000000  0.030882  0.020588      8.000000
  0.010294  0.030882  0.020588     16.000000
  0.020588  0.030882  0.020588     16.000000
  0.030882  0.030882  0.020588     16.000000
  0.041176  0.030882  0.020588     16.000000
  0.051470  0.030882  0.020588     16.000000
  0.061764  0.030882  0.020588      8.000000
  0.000000  0.041176  0.020588      8.000000
  0.010294  0.041176  0.020588     16.000000
  0.020588  0.041176  0.020588     16.000000
  0.030882  0.041176  0.020588     16.000000
  0.041176  0.041176  0.020588     16.000000
  0.051470  0.041176  0.020588     16.000000
  0.061764  0.041176  0.020588      8.000000
  0.000000  0.051470  0.020588      8.000000
  0.010294  0.051470  0.020588     16.000000
  0.020588  0.051470  0.020588     16.000000
  0.030882  0.051470  0.020588     16.000000
  0.041176  0.051470  0.020588     16.000000
  0.051470  0.051470  0.020588     16.000000
  0.061764  0.051470  0.020588      8.000000
  0.000000  0.061764  0.020588      4.000000
  0.010294  0.061764  0.020588      8.000000
  0.020588  0.061764  0.020588      8.000000
  0.030882  0.061764  0.020588      8.000000
  0.041176  0.061764  0.020588      8.000000
  0.051470  0.061764  0.020588      8.000000
  0.061764  0.061764  0.020588      4.000000
  0.000000  0.030882  0.030882      4.000000
  0.010294  0.030882  0.030882      8.000000
  0.020588  0.030882  0.030882      8.000000
  0.030882  0.030882  0.030882      8.000000
  0.041176  0.030882  0.030882      8.000000
  0.051470  0.030882  0.030882      8.000000
  0.061764  0.030882  0.030882      4.000000
  0.000000  0.041176  0.030882      8.000000
  0.010294  0.041176  0.030882     16.000000
  0.020588  0.041176  0.030882     16.000000
  0.030882  0.041176  0.030882     16.000000
  0.041176  0.041176  0.030882     16.000000
  0.051470  0.041176  0.030882     16.000000
  0.061764  0.041176  0.030882      8.000000
  0.000000  0.051470  0.030882      8.000000
  0.010294  0.051470  0.030882     16.000000
  0.020588  0.051470  0.030882     16.000000
  0.030882  0.051470  0.030882     16.000000
  0.041176  0.051470  0.030882     16.000000
  0.051470  0.051470  0.030882     16.000000
  0.061764  0.051470  0.030882      8.000000
  0.000000  0.061764  0.030882      4.000000
  0.010294  0.061764  0.030882      8.000000
  0.020588  0.061764  0.030882      8.000000
  0.030882  0.061764  0.030882      8.000000
  0.041176  0.061764  0.030882      8.000000
  0.051470  0.061764  0.030882      8.000000
  0.061764  0.061764  0.030882      4.000000
  0.000000  0.041176  0.041176      4.000000
  0.010294  0.041176  0.041176      8.000000
  0.020588  0.041176  0.041176      8.000000
  0.030882  0.041176  0.041176      8.000000
  0.041176  0.041176  0.041176      8.000000
  0.051470  0.041176  0.041176      8.000000
  0.061764  0.041176  0.041176      4.000000
  0.000000  0.051470  0.041176      8.000000
  0.010294  0.051470  0.041176     16.000000
  0.020588  0.051470  0.041176     16.000000
  0.030882  0.051470  0.041176     16.000000
  0.041176  0.051470  0.041176     16.000000
  0.051470  0.051470  0.041176     16.000000
  0.061764  0.051470  0.041176      8.000000
  0.000000  0.061764  0.041176      4.000000
  0.010294  0.061764  0.041176      8.000000
  0.020588  0.061764  0.041176      8.000000
  0.030882  0.061764  0.041176      8.000000
  0.041176  0.061764  0.041176      8.000000
  0.051470  0.061764  0.041176      8.000000
  0.061764  0.061764  0.041176      4.000000
  0.000000  0.051470  0.051470      4.000000
  0.010294  0.051470  0.051470      8.000000
  0.020588  0.051470  0.051470      8.000000
  0.030882  0.051470  0.051470      8.000000
  0.041176  0.051470  0.051470      8.000000
  0.051470  0.051470  0.051470      8.000000
  0.061764  0.051470  0.051470      4.000000
  0.000000  0.061764  0.051470      4.000000
  0.010294  0.061764  0.051470      8.000000
  0.020588  0.061764  0.051470      8.000000
  0.030882  0.061764  0.051470      8.000000
  0.041176  0.061764  0.051470      8.000000
  0.051470  0.061764  0.051470      8.000000
  0.061764  0.061764  0.051470      4.000000
  0.000000  0.061764  0.061764      1.000000
  0.010294  0.061764  0.061764      2.000000
  0.020588  0.061764  0.061764      2.000000
  0.030882  0.061764  0.061764      2.000000
  0.041176  0.061764  0.061764      2.000000
  0.051470  0.061764  0.061764      2.000000
  0.061764  0.061764  0.061764      1.000000
 


--------------------------------------------------------------------------------------------------------




 Dimension of arrays:
   k-Points           NKPTS =    196   number of bands    NBANDS=    224
   number of dos      NEDOS =    301   number of ions     NIONS =     32
   non local maximal  LDIM  =      6   non local SUM 2l+1 LMDIM =     18
   total plane-waves  NPLWV = 373248
   max r-space proj   IRMAX =      1   max aug-charges    IRDMAX= 344352
   dimension x,y,z NGX =    72 NGY =   72 NGZ =   72
   dimension x,y,z NGXF=   144 NGYF=  144 NGZF=  144
   support grid    NGXF=   288 NGYF=  288 NGZF=  288
   ions per type =              32
 NGX,Y,Z   is equivalent  to a cutoff of  14.79, 14.79, 14.79 a.u.
 NGXF,Y,Z  is equivalent  to a cutoff of  29.57, 29.57, 29.57 a.u.


 I would recommend the setting:
   dimension x,y,z NGX =    72 NGY =   72 NGZ =   72
 SYSTEM =  unknown system                          
 POSCAR =  Au                                      

 Startparameter for this run:
   NWRITE =      2    write-flag & timer
   PREC   = accura    medium, high low
   ISTART =      0    job   : 0-new  1-cont  2-samecut
   ICHARG =      2    charge: 1-file 2-atom 10-const
   ISPIN  =      1    spin polarized calculation?
   LNONCOLLINEAR =      F non collinear calculations
   LSORBIT =      F    spin-orbit coupling
   INIWAV =      1    electr: 0-lowe 1-rand  2-diag
   LASPH  =      F    aspherical Exc in radial PAW
   METAGGA=      F    non-selfconsistent MetaGGA calc.

 Electronic Relaxation 1
   ENCUT  =  750.0 eV  55.12 Ry    7.42 a.u.  18.08 18.08 18.08*2*pi/ulx,y,z
   ENINI  =  750.0     initial cutoff
   ENAUG  =  356.7 eV  augmentation charge cutoff
   NELM   =     60;   NELMIN=  2; NELMDL=  0     # of ELM steps 
   EDIFF  = 0.1E-07   stopping-criterion for ELM
   LREAL  =      F    real-space projection
   LCOMPAT=      F    compatible to vasp.4.4
   LREAL_COMPAT= F    compatible to vasp.4.5.1-3
   GGA_COMPAT  = T    GGA compatible to vasp.4.4-vasp.4.6
   LMAXPAW     = -100 max onsite density
   LMAXMIX     =    2 max onsite mixed and CHGCAR
   VOSKOWN=      0    Vosko Wilk Nusair interpolation
   ROPT   =    0.00000
 Ionic relaxation
   EDIFFG = 0.1E-06   stopping-criterion for IOM
   NSW    =      0    number of steps for IOM
   NBLOCK =      1;   KBLOCK =      1    inner block; outer block 
   IBRION =     -1    ionic relax: 0-MD 1-quasi-New 2-CG
   NFREE  =      0    steps in history (QN), initial steepest desc. (CG)
   ISIF   =      2    stress and relaxation
   IWAVPR =     10    prediction:  0-non 1-charg 2-wave 3-comb
   ISYM   =      2    0-nonsym 1-usesym 2-fastsym
   LCORR  =      T    Harris-Foulkes like correction to forces

   POTIM  =   0.50    time-step for ionic-motion
   TEIN   =    0.0    initial temperature
   TEBEG  =    0.0;   TEEND  =   0.0 temperature during run
   SMASS  =  -3.00    Nose mass-parameter (am)
   estimated Nose-frequenzy (Omega)   =  0.10E-29 period in steps =****** mass=  -0.150E-26a.u.
   NPACO  =    256;   APACO  = 16.0  distance and # of slots for P.C.
   PSTRESS=    0.0 pullay stress

  Mass of Ions in am
   POMASS = 196.97
  Ionic Valenz
   ZVAL   =  11.00
  Atomic Wigner-Seitz radii
   RWIGS  =  -1.00
   NELECT =     352.0000    total number of electrons
   NUPDOWN=      -1.0000    fix difference up-down

 DOS related values:
   EMIN   =  10.00;   EMAX   =-10.00  energy-range for DOS
   ISMEAR =     0;   SIGMA  =   0.01  broadening in eV -4-tet -1-fermi 0-gaus

 Electronic relaxation 2 (details)
   IALGO  =     38    algorithm
   LDIAG  =      T    sub-space diagonalisation
   IMIX   =      4    mixing-type and parameters
     AMIX     =   0.40;   BMIX     =  1.00
     AMIX_MAG =   1.60;   BMIX_MAG =  1.00
     AMIN     =   0.10
     WC   =   100.;   INIMIX=   1;  MIXPRE=   1

 Intra band minimization:
   WEIMIN = 0.0000     energy-eigenvalue tresh-hold
   EBREAK =  0.12E-10  absolut break condition
   DEPER  =   0.30     relativ break condition  

   TIME   =   0.10     timestep for ELM

  volume/ion in A,a.u.               =      16.58       111.88
  Fermi-wavevector in a.u.,eV,Ry     =   1.427867 27.739606  2.038803

 Second variation
   LSECVAR=     F    do a second variation
 
 Write flags
   LWAVE  =      F    write WAVECAR
   LCHARG =      F    write CHGCAR
   LVTOT  =      F    write LOCPOT, local potential
   LELF   =      F    write electronic localiz. function (ELF)
   LORBIT =      0    0 simple, 1 ext, 2 COOP (PROOUT)


 Dipole corrections
   IDIPOL =      0    1-x, 2-y, 3-z
   LDIPOL =      F    correct potential



--------------------------------------------------------------------------------------------------------


 Static calculation
 charge density will be updated during run
 non-spin polarized calculation
 Variant of blocked Davidson
 Davidson routine will perform the subspace rotation
 performe sub-space diagonalisation
    after iterative eigenvector-optimisation
 modified Broyden-mixing scheme, WC =      100.0
 initial mixing is a Kerker type mixing with AMIX =  0.4000 and BMIX =      1.0000
 Hartree-type preconditioning will be used
 using additional bands           48
 reciprocal scheme for non local part
 use partial core corrections
 calculate Harris-corrections to forces 
   (improved forces if not selfconsistent)
 use gradient corrections 
 use of overlap-Matrix (Vanderbilt PP)
 Gauss-broadening in eV      SIGMA  =   0.01


--------------------------------------------------------------------------------------------------------


  energy-cutoff  :      750.00
  volume of cell :      530.52
      direct lattice vectors                 reciprocal lattice vectors
     8.095332690  0.000000000  0.000000000     0.123527968  0.000000000  0.000000000
     0.000000000  8.095332690  0.000000000     0.000000000  0.123527968  0.000000000
     0.000000000  0.000000000  8.095332690     0.000000000  0.000000000  0.123527968

  length of vectors
     8.095332690  8.095332690  8.095332690     0.123527968  0.123527968  0.123527968


 
 k-points in units of 2pi/SCALE and weight: Automatic mesh                          
   0.00000000  0.00000000  0.00000000       0.001
   0.01029400  0.00000000  0.00000000       0.001
   0.02058799  0.00000000  0.00000000       0.001
   0.03088199  0.00000000  0.00000000       0.001
   0.04117599  0.00000000  0.00000000       0.001
   0.05146999  0.00000000  0.00000000       0.001
   0.06176398  0.00000000  0.00000000       0.001
   0.00000000  0.01029400  0.00000000       0.002
   0.01029400  0.01029400  0.00000000       0.005
   0.02058799  0.01029400  0.00000000       0.005
   0.03088199  0.01029400  0.00000000       0.005
   0.04117599  0.01029400  0.00000000       0.005
   0.05146999  0.01029400  0.00000000       0.005
   0.06176398  0.01029400  0.00000000       0.002
   0.00000000  0.02058799  0.00000000       0.002
   0.01029400  0.02058799  0.00000000       0.005
   0.02058799  0.02058799  0.00000000       0.005
   0.03088199  0.02058799  0.00000000       0.005
   0.04117599  0.02058799  0.00000000       0.005
   0.05146999  0.02058799  0.00000000       0.005
   0.06176398  0.02058799  0.00000000       0.002
   0.00000000  0.03088199  0.00000000       0.002
   0.01029400  0.03088199  0.00000000       0.005
   0.02058799  0.03088199  0.00000000       0.005
   0.03088199  0.03088199  0.00000000       0.005
   0.04117599  0.03088199  0.00000000       0.005
   0.05146999  0.03088199  0.00000000       0.005
   0.06176398  0.03088199  0.00000000       0.002
   0.00000000  0.04117599  0.00000000       0.002
   0.01029400  0.04117599  0.00000000       0.005
   0.02058799  0.04117599  0.00000000       0.005
   0.03088199  0.04117599  0.00000000       0.005
   0.04117599  0.04117599  0.00000000       0.005
   0.05146999  0.04117599  0.00000000       0.005
   0.06176398  0.04117599  0.00000000       0.002
   0.00000000  0.05146999  0.00000000       0.002
   0.01029400  0.05146999  0.00000000       0.005
   0.02058799  0.05146999  0.00000000       0.005
   0.03088199  0.05146999  0.00000000       0.005
   0.04117599  0.05146999  0.00000000       0.005
   0.05146999  0.05146999  0.00000000       0.005
   0.06176398  0.05146999  0.00000000       0.002
   0.00000000  0.06176398  0.00000000       0.001
   0.01029400  0.06176398  0.00000000       0.002
   0.02058799  0.06176398  0.00000000       0.002
   0.03088199  0.06176398  0.00000000       0.002
   0.04117599  0.06176398  0.00000000       0.002
   0.05146999  0.06176398  0.00000000       0.002
   0.06176398  0.06176398  0.00000000       0.001
   0.00000000  0.01029400  0.01029400       0.002
   0.01029400  0.01029400  0.01029400       0.005
   0.02058799  0.01029400  0.01029400       0.005
   0.03088199  0.01029400  0.01029400       0.005
   0.04117599  0.01029400  0.01029400       0.005
   0.05146999  0.01029400  0.01029400       0.005
   0.06176398  0.01029400  0.01029400       0.002
   0.00000000  0.02058799  0.01029400       0.005
   0.01029400  0.02058799  0.01029400       0.009
   0.02058799  0.02058799  0.01029400       0.009
   0.03088199  0.02058799  0.01029400       0.009
   0.04117599  0.02058799  0.01029400       0.009
   0.05146999  0.02058799  0.01029400       0.009
   0.06176398  0.02058799  0.01029400       0.005
   0.00000000  0.03088199  0.01029400       0.005
   0.01029400  0.03088199  0.01029400       0.009
   0.02058799  0.03088199  0.01029400       0.009
   0.03088199  0.03088199  0.01029400       0.009
   0.04117599  0.03088199  0.01029400       0.009
   0.05146999  0.03088199  0.01029400       0.009
   0.06176398  0.03088199  0.01029400       0.005
   0.00000000  0.04117599  0.01029400       0.005
   0.01029400  0.04117599  0.01029400       0.009
   0.02058799  0.04117599  0.01029400       0.009
   0.03088199  0.04117599  0.01029400       0.009
   0.04117599  0.04117599  0.01029400       0.009
   0.05146999  0.04117599  0.01029400       0.009
   0.06176398  0.04117599  0.01029400       0.005
   0.00000000  0.05146999  0.01029400       0.005
   0.01029400  0.05146999  0.01029400       0.009
   0.02058799  0.05146999  0.01029400       0.009
   0.03088199  0.05146999  0.01029400       0.009
   0.04117599  0.05146999  0.01029400       0.009
   0.05146999  0.05146999  0.01029400       0.009
   0.06176398  0.05146999  0.01029400       0.005
   0.00000000  0.06176398  0.01029400       0.002
   0.01029400  0.06176398  0.01029400       0.005
   0.02058799  0.06176398  0.01029400       0.005
   0.03088199  0.06176398  0.01029400       0.005
   0.04117599  0.06176398  0.01029400       0.005
   0.05146999  0.06176398  0.01029400       0.005
   0.06176398  0.06176398  0.01029400       0.002
   0.00000000  0.02058799  0.02058799       0.002
   0.01029400  0.02058799  0.02058799       0.005
   0.02058799  0.02058799  0.02058799       0.005
   0.03088199  0.02058799  0.02058799       0.005
   0.04117599  0.02058799  0.02058799       0.005
   0.05146999  0.02058799  0.02058799       0.005
   0.06176398  0.02058799  0.02058799       0.002
   0.00000000  0.03088199  0.02058799       0.005
   0.01029400  0.03088199  0.02058799       0.009
   0.02058799  0.03088199  0.02058799       0.009
   0.03088199  0.03088199  0.02058799       0.009
   0.04117599  0.03088199  0.02058799       0.009
   0.05146999  0.03088199  0.02058799       0.009
   0.06176398  0.03088199  0.02058799       0.005
   0.00000000  0.04117599  0.02058799       0.005
   0.01029400  0.04117599  0.02058799       0.009
   0.02058799  0.04117599  0.02058799       0.009
   0.03088199  0.04117599  0.02058799       0.009
   0.04117599  0.04117599  0.02058799       0.009
   0.05146999  0.04117599  0.02058799       0.009
   0.06176398  0.04117599  0.02058799       0.005
   0.00000000  0.05146999  0.02058799       0.005
   0.01029400  0.05146999  0.02058799       0.009
   0.02058799  0.05146999  0.02058799       0.009
   0.03088199  0.05146999  0.02058799       0.009
   0.04117599  0.05146999  0.02058799       0.009
   0.05146999  0.05146999  0.02058799       0.009
   0.06176398  0.05146999  0.02058799       0.005
   0.00000000  0.06176398  0.02058799       0.002
   0.01029400  0.06176398  0.02058799       0.005
   0.02058799  0.06176398  0.02058799       0.005
   0.03088199  0.06176398  0.02058799       0.005
   0.04117599  0.06176398  0.02058799       0.005
   0.05146999  0.06176398  0.02058799       0.005
   0.06176398  0.06176398  0.02058799       0.002
   0.00000000  0.03088199  0.03088199       0.002
   0.01029400  0.03088199  0.03088199       0.005
   0.02058799  0.03088199  0.03088199       0.005
   0.03088199  0.03088199  0.03088199       0.005
   0.04117599  0.03088199  0.03088199       0.005
   0.05146999  0.03088199  0.03088199       0.005
   0.06176398  0.03088199  0.03088199       0.002
   0.00000000  0.04117599  0.03088199       0.005
   0.01029400  0.04117599  0.03088199       0.009
   0.02058799  0.04117599  0.03088199       0.009
   0.03088199  0.04117599  0.03088199       0.009
   0.04117599  0.04117599  0.03088199       0.009
   0.05146999  0.04117599  0.03088199       0.009
   0.06176398  0.04117599  0.03088199       0.005
   0.00000000  0.05146999  0.03088199       0.005
   0.01029400  0.05146999  0.03088199       0.009
   0.02058799  0.05146999  0.03088199       0.009
   0.03088199  0.05146999  0.03088199       0.009
   0.04117599  0.05146999  0.03088199       0.009
   0.05146999  0.05146999  0.03088199       0.009
   0.06176398  0.05146999  0.03088199       0.005
   0.00000000  0.06176398  0.03088199       0.002
   0.01029400  0.06176398  0.03088199       0.005
   0.02058799  0.06176398  0.03088199       0.005
   0.03088199  0.06176398  0.03088199       0.005
   0.04117599  0.06176398  0.03088199       0.005
   0.05146999  0.06176398  0.03088199       0.005
   0.06176398  0.06176398  0.03088199       0.002
   0.00000000  0.04117599  0.04117599       0.002
   0.01029400  0.04117599  0.04117599       0.005
   0.02058799  0.04117599  0.04117599       0.005
   0.03088199  0.04117599  0.04117599       0.005
   0.04117599  0.04117599  0.04117599       0.005
   0.05146999  0.04117599  0.04117599       0.005
   0.06176398  0.04117599  0.04117599       0.002
   0.00000000  0.05146999  0.04117599       0.005
   0.01029400  0.05146999  0.04117599       0.009
   0.02058799  0.05146999  0.04117599       0.009
   0.03088199  0.05146999  0.04117599       0.009
   0.04117599  0.05146999  0.04117599       0.009
   0.05146999  0.05146999  0.04117599       0.009
   0.06176398  0.05146999  0.04117599       0.005
   0.00000000  0.06176398  0.04117599       0.002
   0.01029400  0.06176398  0.04117599       0.005
   0.02058799  0.06176398  0.04117599       0.005
   0.03088199  0.06176398  0.04117599       0.005
   0.04117599  0.06176398  0.04117599       0.005
   0.05146999  0.06176398  0.04117599       0.005
   0.06176398  0.06176398  0.04117599       0.002
   0.00000000  0.05146999  0.05146999       0.002
   0.01029400  0.05146999  0.05146999       0.005
   0.02058799  0.05146999  0.05146999       0.005
   0.03088199  0.05146999  0.05146999       0.005
   0.04117599  0.05146999  0.05146999       0.005
   0.05146999  0.05146999  0.05146999       0.005
   0.06176398  0.05146999  0.05146999       0.002
   0.00000000  0.06176398  0.05146999       0.002
   0.01029400  0.06176398  0.05146999       0.005
   0.02058799  0.06176398  0.05146999       0.005
   0.03088199  0.06176398  0.05146999       0.005
   0.04117599  0.06176398  0.05146999       0.005
   0.05146999  0.06176398  0.05146999       0.005
   0.06176398  0.06176398  0.05146999       0.002
   0.00000000  0.06176398  0.06176398       0.001
   0.01029400  0.06176398  0.06176398       0.001
   0.02058799  0.06176398  0.06176398       0.001
   0.03088199  0.06176398  0.06176398       0.001
   0.04117599  0.06176398  0.06176398       0.001
   0.05146999  0.06176398  0.06176398       0.001
   0.06176398  0.06176398  0.06176398       0.001
 
 k-points in reciprocal lattice and weights: Automatic mesh                          
   0.00000000  0.00000000  0.00000000       0.001
   0.08333333  0.00000000  0.00000000       0.001
   0.16666667  0.00000000  0.00000000       0.001
   0.25000000  0.00000000  0.00000000       0.001
   0.33333333  0.00000000  0.00000000       0.001
   0.41666667  0.00000000  0.00000000       0.001
   0.50000000  0.00000000  0.00000000       0.001
   0.00000000  0.08333333  0.00000000       0.002
   0.08333333  0.08333333  0.00000000       0.005
   0.16666667  0.08333333  0.00000000       0.005
   0.25000000  0.08333333  0.00000000       0.005
   0.33333333  0.08333333  0.00000000       0.005
   0.41666667  0.08333333  0.00000000       0.005
   0.50000000  0.08333333  0.00000000       0.002
   0.00000000  0.16666667  0.00000000       0.002
   0.08333333  0.16666667  0.00000000       0.005
   0.16666667  0.16666667  0.00000000       0.005
   0.25000000  0.16666667  0.00000000       0.005
   0.33333333  0.16666667  0.00000000       0.005
   0.41666667  0.16666667  0.00000000       0.005
   0.50000000  0.16666667  0.00000000       0.002
   0.00000000  0.25000000  0.00000000       0.002
   0.08333333  0.25000000  0.00000000       0.005
   0.16666667  0.25000000  0.00000000       0.005
   0.25000000  0.25000000  0.00000000       0.005
   0.33333333  0.25000000  0.00000000       0.005
   0.41666667  0.25000000  0.00000000       0.005
   0.50000000  0.25000000  0.00000000       0.002
   0.00000000  0.33333333  0.00000000       0.002
   0.08333333  0.33333333  0.00000000       0.005
   0.16666667  0.33333333  0.00000000       0.005
   0.25000000  0.33333333  0.00000000       0.005
   0.33333333  0.33333333  0.00000000       0.005
   0.41666667  0.33333333  0.00000000       0.005
   0.50000000  0.33333333  0.00000000       0.002
   0.00000000  0.41666667  0.00000000       0.002
   0.08333333  0.41666667  0.00000000       0.005
   0.16666667  0.41666667  0.00000000       0.005
   0.25000000  0.41666667  0.00000000       0.005
   0.33333333  0.41666667  0.00000000       0.005
   0.41666667  0.41666667  0.00000000       0.005
   0.50000000  0.41666667  0.00000000       0.002
   0.00000000  0.50000000  0.00000000       0.001
   0.08333333  0.50000000  0.00000000       0.002
   0.16666667  0.50000000  0.00000000       0.002
   0.25000000  0.50000000  0.00000000       0.002
   0.33333333  0.50000000  0.00000000       0.002
   0.41666667  0.50000000  0.00000000       0.002
   0.50000000  0.50000000  0.00000000       0.001
   0.00000000  0.08333333  0.08333333       0.002
   0.08333333  0.08333333  0.08333333       0.005
   0.16666667  0.08333333  0.08333333       0.005
   0.25000000  0.08333333  0.08333333       0.005
   0.33333333  0.08333333  0.08333333       0.005
   0.41666667  0.08333333  0.08333333       0.005
   0.50000000  0.08333333  0.08333333       0.002
   0.00000000  0.16666667  0.08333333       0.005
   0.08333333  0.16666667  0.08333333       0.009
   0.16666667  0.16666667  0.08333333       0.009
   0.25000000  0.16666667  0.08333333       0.009
   0.33333333  0.16666667  0.08333333       0.009
   0.41666667  0.16666667  0.08333333       0.009
   0.50000000  0.16666667  0.08333333       0.005
   0.00000000  0.25000000  0.08333333       0.005
   0.08333333  0.25000000  0.08333333       0.009
   0.16666667  0.25000000  0.08333333       0.009
   0.25000000  0.25000000  0.08333333       0.009
   0.33333333  0.25000000  0.08333333       0.009
   0.41666667  0.25000000  0.08333333       0.009
   0.50000000  0.25000000  0.08333333       0.005
   0.00000000  0.33333333  0.08333333       0.005
   0.08333333  0.33333333  0.08333333       0.009
   0.16666667  0.33333333  0.08333333       0.009
   0.25000000  0.33333333  0.08333333       0.009
   0.33333333  0.33333333  0.08333333       0.009
   0.41666667  0.33333333  0.08333333       0.009
   0.50000000  0.33333333  0.08333333       0.005
   0.00000000  0.41666667  0.08333333       0.005
   0.08333333  0.41666667  0.08333333       0.009
   0.16666667  0.41666667  0.08333333       0.009
   0.25000000  0.41666667  0.08333333       0.009
   0.33333333  0.41666667  0.08333333       0.009
   0.41666667  0.41666667  0.08333333       0.009
   0.50000000  0.41666667  0.08333333       0.005
   0.00000000  0.50000000  0.08333333       0.002
   0.08333333  0.50000000  0.08333333       0.005
   0.16666667  0.50000000  0.08333333       0.005
   0.25000000  0.50000000  0.08333333       0.005
   0.33333333  0.50000000  0.08333333       0.005
   0.41666667  0.50000000  0.08333333       0.005
   0.50000000  0.50000000  0.08333333       0.002
   0.00000000  0.16666667  0.16666667       0.002
   0.08333333  0.16666667  0.16666667       0.005
   0.16666667  0.16666667  0.16666667       0.005
   0.25000000  0.16666667  0.16666667       0.005
   0.33333333  0.16666667  0.16666667       0.005
   0.41666667  0.16666667  0.16666667       0.005
   0.50000000  0.16666667  0.16666667       0.002
   0.00000000  0.25000000  0.16666667       0.005
   0.08333333  0.25000000  0.16666667       0.009
   0.16666667  0.25000000  0.16666667       0.009
   0.25000000  0.25000000  0.16666667       0.009
   0.33333333  0.25000000  0.16666667       0.009
   0.41666667  0.25000000  0.16666667       0.009
   0.50000000  0.25000000  0.16666667       0.005
   0.00000000  0.33333333  0.16666667       0.005
   0.08333333  0.33333333  0.16666667       0.009
   0.16666667  0.33333333  0.16666667       0.009
   0.25000000  0.33333333  0.16666667       0.009
   0.33333333  0.33333333  0.16666667       0.009
   0.41666667  0.33333333  0.16666667       0.009
   0.50000000  0.33333333  0.16666667       0.005
   0.00000000  0.41666667  0.16666667       0.005
   0.08333333  0.41666667  0.16666667       0.009
   0.16666667  0.41666667  0.16666667       0.009
   0.25000000  0.41666667  0.16666667       0.009
   0.33333333  0.41666667  0.16666667       0.009
   0.41666667  0.41666667  0.16666667       0.009
   0.50000000  0.41666667  0.16666667       0.005
   0.00000000  0.50000000  0.16666667       0.002
   0.08333333  0.50000000  0.16666667       0.005
   0.16666667  0.50000000  0.16666667       0.005
   0.25000000  0.50000000  0.16666667       0.005
   0.33333333  0.50000000  0.16666667       0.005
   0.41666667  0.50000000  0.16666667       0.005
   0.50000000  0.50000000  0.16666667       0.002
   0.00000000  0.25000000  0.25000000       0.002
   0.08333333  0.25000000  0.25000000       0.005
   0.16666667  0.25000000  0.25000000       0.005
   0.25000000  0.25000000  0.25000000       0.005
   0.33333333  0.25000000  0.25000000       0.005
   0.41666667  0.25000000  0.25000000       0.005
   0.50000000  0.25000000  0.25000000       0.002
   0.00000000  0.33333333  0.25000000       0.005
   0.08333333  0.33333333  0.25000000       0.009
   0.16666667  0.33333333  0.25000000       0.009
   0.25000000  0.33333333  0.25000000       0.009
   0.33333333  0.33333333  0.25000000       0.009
   0.41666667  0.33333333  0.25000000       0.009
   0.50000000  0.33333333  0.25000000       0.005
   0.00000000  0.41666667  0.25000000       0.005
   0.08333333  0.41666667  0.25000000       0.009
   0.16666667  0.41666667  0.25000000       0.009
   0.25000000  0.41666667  0.25000000       0.009
   0.33333333  0.41666667  0.25000000       0.009
   0.41666667  0.41666667  0.25000000       0.009
   0.50000000  0.41666667  0.25000000       0.005
   0.00000000  0.50000000  0.25000000       0.002
   0.08333333  0.50000000  0.25000000       0.005
   0.16666667  0.50000000  0.25000000       0.005
   0.25000000  0.50000000  0.25000000       0.005
   0.33333333  0.50000000  0.25000000       0.005
   0.41666667  0.50000000  0.25000000       0.005
   0.50000000  0.50000000  0.25000000       0.002
   0.00000000  0.33333333  0.33333333       0.002
   0.08333333  0.33333333  0.33333333       0.005
   0.16666667  0.33333333  0.33333333       0.005
   0.25000000  0.33333333  0.33333333       0.005
   0.33333333  0.33333333  0.33333333       0.005
   0.41666667  0.33333333  0.33333333       0.005
   0.50000000  0.33333333  0.33333333       0.002
   0.00000000  0.41666667  0.33333333       0.005
   0.08333333  0.41666667  0.33333333       0.009
   0.16666667  0.41666667  0.33333333       0.009
   0.25000000  0.41666667  0.33333333       0.009
   0.33333333  0.41666667  0.33333333       0.009
   0.41666667  0.41666667  0.33333333       0.009
   0.50000000  0.41666667  0.33333333       0.005
   0.00000000  0.50000000  0.33333333       0.002
   0.08333333  0.50000000  0.33333333       0.005
   0.16666667  0.50000000  0.33333333       0.005
   0.25000000  0.50000000  0.33333333       0.005
   0.33333333  0.50000000  0.33333333       0.005
   0.41666667  0.50000000  0.33333333       0.005
   0.50000000  0.50000000  0.33333333       0.002
   0.00000000  0.41666667  0.41666667       0.002
   0.08333333  0.41666667  0.41666667       0.005
   0.16666667  0.41666667  0.41666667       0.005
   0.25000000  0.41666667  0.41666667       0.005
   0.33333333  0.41666667  0.41666667       0.005
   0.41666667  0.41666667  0.41666667       0.005
   0.50000000  0.41666667  0.41666667       0.002
   0.00000000  0.50000000  0.41666667       0.002
   0.08333333  0.50000000  0.41666667       0.005
   0.16666667  0.50000000  0.41666667       0.005
   0.25000000  0.50000000  0.41666667       0.005
   0.33333333  0.50000000  0.41666667       0.005
   0.41666667  0.50000000  0.41666667       0.005
   0.50000000  0.50000000  0.41666667       0.002
   0.00000000  0.50000000  0.50000000       0.001
   0.08333333  0.50000000  0.50000000       0.001
   0.16666667  0.50000000  0.50000000       0.001
   0.25000000  0.50000000  0.50000000       0.001
   0.33333333  0.50000000  0.50000000       0.001
   0.41666667  0.50000000  0.50000000       0.001
   0.50000000  0.50000000  0.50000000       0.001
 
 position of ions in fractional coordinates (direct lattice) 
   0.00123528  0.00000000  0.00000000
   0.50000000  0.00000000  0.00000000
   0.00000000  0.50000000  0.00000000
   0.50000000  0.50000000  0.00000000
   0.00000000  0.00000000  0.50000000
   0.50000000  0.00000000  0.50000000
   0.00000000  0.50000000  0.50000000
   0.50000000  0.50000000  0.50000000
   0.25000000  0.25000000  0.00000000
   0.75000000  0.25000000  0.00000000
   0.25000000  0.75000000  0.00000000
   0.75000000  0.75000000  0.00000000
   0.25000000  0.25000000  0.50000000
   0.75000000  0.25000000  0.50000000
   0.25000000  0.75000000  0.50000000
   0.75000000  0.75000000  0.50000000
   0.25000000  0.00000000  0.25000000
   0.75000000  0.00000000  0.25000000
   0.25000000  0.50000000  0.25000000
   0.75000000  0.50000000  0.25000000
   0.25000000  0.00000000  0.75000000
   0.75000000  0.00000000  0.75000000
   0.25000000  0.50000000  0.75000000
   0.75000000  0.50000000  0.75000000
   0.00000000  0.25000000  0.25000000
   0.50000000  0.25000000  0.25000000
   0.00000000  0.75000000  0.25000000
   0.50000000  0.75000000  0.25000000
   0.00000000  0.25000000  0.75000000
   0.50000000  0.25000000  0.75000000
   0.00000000  0.75000000  0.75000000
   0.50000000  0.75000000  0.75000000
 
 position of ions in cartesian coordinates  (Angst):
   0.01000000  0.00000000  0.00000000
   4.04766635  0.00000000  0.00000000
   0.00000000  4.04766635  0.00000000
   4.04766635  4.04766635  0.00000000
   0.00000000  0.00000000  4.04766635
   4.04766635  0.00000000  4.04766635
   0.00000000  4.04766635  4.04766635
   4.04766635  4.04766635  4.04766635
   2.02383317  2.02383317  0.00000000
   6.07149952  2.02383317  0.00000000
   2.02383317  6.07149952  0.00000000
   6.07149952  6.07149952  0.00000000
   2.02383317  2.02383317  4.04766635
   6.07149952  2.02383317  4.04766635
   2.02383317  6.07149952  4.04766635
   6.07149952  6.07149952  4.04766635
   2.02383317  0.00000000  2.02383317
   6.07149952  0.00000000  2.02383317
   2.02383317  4.04766635  2.02383317
   6.07149952  4.04766635  2.02383317
   2.02383317  0.00000000  6.07149952
   6.07149952  0.00000000  6.07149952
   2.02383317  4.04766635  6.07149952
   6.07149952  4.04766635  6.07149952
   0.00000000  2.02383317  2.02383317
   4.04766635  2.02383317  2.02383317
   0.00000000  6.07149952  2.02383317
   4.04766635  6.07149952  2.02383317
   0.00000000  2.02383317  6.07149952
   4.04766635  2.02383317  6.07149952
   0.00000000  6.07149952  6.07149952
   4.04766635  6.07149952  6.07149952
 


--------------------------------------------------------------------------------------------------------


 k-point  1 :  0.00000.00000.0000  plane waves:  24837
 k-point  2 :  0.08330.00000.0000  plane waves:  24748
 k-point  3 :  0.16670.00000.0000  plane waves:  24756
 k-point  4 :  0.25000.00000.0000  plane waves:  24752
 k-point  5 :  0.33330.00000.0000  plane waves:  24704
 k-point  6 :  0.41670.00000.0000  plane waves:  24700
 k-point  7 :  0.50000.00000.0000  plane waves:  24772
 k-point  8 :  0.00000.08330.0000  plane waves:  24748
 k-point  9 :  0.08330.08330.0000  plane waves:  24757
 k-point 10 :  0.16670.08330.0000  plane waves:  24740
 k-point 11 :  0.25000.08330.0000  plane waves:  24737
 k-point 12 :  0.33330.08330.0000  plane waves:  24719
 k-point 13 :  0.41670.08330.0000  plane waves:  24700
 k-point 14 :  0.50000.08330.0000  plane waves:  24720
 k-point 15 :  0.00000.16670.0000  plane waves:  24756
 k-point 16 :  0.08330.16670.0000  plane waves:  24740
 k-point 17 :  0.16670.16670.0000  plane waves:  24759
 k-point 18 :  0.25000.16670.0000  plane waves:  24738
 k-point 19 :  0.33330.16670.0000  plane waves:  24702
 k-point 20 :  0.41670.16670.0000  plane waves:  24719
 k-point 21 :  0.50000.16670.0000  plane waves:  24716
 k-point 22 :  0.00000.25000.0000  plane waves:  24752
 k-point 23 :  0.08330.25000.0000  plane waves:  24737
 k-point 24 :  0.16670.25000.0000  plane waves:  24738
 k-point 25 :  0.25000.25000.0000  plane waves:  24728
 k-point 26 :  0.33330.25000.0000  plane waves:  24716
 k-point 27 :  0.41670.25000.0000  plane waves:  24739
 k-point 28 :  0.50000.25000.0000  plane waves:  24712
 k-point 29 :  0.00000.33330.0000  plane waves:  24704
 k-point 30 :  0.08330.33330.0000  plane waves:  24719
 k-point 31 :  0.16670.33330.0000  plane waves:  24702
 k-point 32 :  0.25000.33330.0000  plane waves:  24716
 k-point 33 :  0.33330.33330.0000  plane waves:  24724
 k-point 34 :  0.41670.33330.0000  plane waves:  24726
 k-point 35 :  0.50000.33330.0000  plane waves:  24762
 k-point 36 :  0.00000.41670.0000  plane waves:  24700
 k-point 37 :  0.08330.41670.0000  plane waves:  24700
 k-point 38 :  0.16670.41670.0000  plane waves:  24719
 k-point 39 :  0.25000.41670.0000  plane waves:  24739
 k-point 40 :  0.33330.41670.0000  plane waves:  24726
 k-point 41 :  0.41670.41670.0000  plane waves:  24750
 k-point 42 :  0.50000.41670.0000  plane waves:  24742
 k-point 43 :  0.00000.50000.0000  plane waves:  24772
 k-point 44 :  0.08330.50000.0000  plane waves:  24720
 k-point 45 :  0.16670.50000.0000  plane waves:  24716
 k-point 46 :  0.25000.50000.0000  plane waves:  24712
 k-point 47 :  0.33330.50000.0000  plane waves:  24762
 k-point 48 :  0.41670.50000.0000  plane waves:  24742
 k-point 49 :  0.50000.50000.0000  plane waves:  24700
 k-point 50 :  0.00000.08330.0833  plane waves:  24757
 k-point 51 :  0.08330.08330.0833  plane waves:  24753
 k-point 52 :  0.16670.08330.0833  plane waves:  24753
 k-point 53 :  0.25000.08330.0833  plane waves:  24724
 k-point 54 :  0.33330.08330.0833  plane waves:  24704
 k-point 55 :  0.41670.08330.0833  plane waves:  24720
 k-point 56 :  0.50000.08330.0833  plane waves:  24734
 k-point 57 :  0.00000.16670.0833  plane waves:  24740
 k-point 58 :  0.08330.16670.0833  plane waves:  24753
 k-point 59 :  0.16670.16670.0833  plane waves:  24745
 k-point 60 :  0.25000.16670.0833  plane waves:  24745
 k-point 61 :  0.33330.16670.0833  plane waves:  24716
 k-point 62 :  0.41670.16670.0833  plane waves:  24740
 k-point 63 :  0.50000.16670.0833  plane waves:  24730
 k-point 64 :  0.00000.25000.0833  plane waves:  24737
 k-point 65 :  0.08330.25000.0833  plane waves:  24724
 k-point 66 :  0.16670.25000.0833  plane waves:  24745
 k-point 67 :  0.25000.25000.0833  plane waves:  24740
 k-point 68 :  0.33330.25000.0833  plane waves:  24725
 k-point 69 :  0.41670.25000.0833  plane waves:  24733
 k-point 70 :  0.50000.25000.0833  plane waves:  24746
 k-point 71 :  0.00000.33330.0833  plane waves:  24719
 k-point 72 :  0.08330.33330.0833  plane waves:  24704
 k-point 73 :  0.16670.33330.0833  plane waves:  24716
 k-point 74 :  0.25000.33330.0833  plane waves:  24725
 k-point 75 :  0.33330.33330.0833  plane waves:  24746
 k-point 76 :  0.41670.33330.0833  plane waves:  24734
 k-point 77 :  0.50000.33330.0833  plane waves:  24734
 k-point 78 :  0.00000.41670.0833  plane waves:  24700
 k-point 79 :  0.08330.41670.0833  plane waves:  24720
 k-point 80 :  0.16670.41670.0833  plane waves:  24740
 k-point 81 :  0.25000.41670.0833  plane waves:  24733
 k-point 82 :  0.33330.41670.0833  plane waves:  24734
 k-point 83 :  0.41670.41670.0833  plane waves:  24748
 k-point 84 :  0.50000.41670.0833  plane waves:  24742
 k-point 85 :  0.00000.50000.0833  plane waves:  24720
 k-point 86 :  0.08330.50000.0833  plane waves:  24734
 k-point 87 :  0.16670.50000.0833  plane waves:  24730
 k-point 88 :  0.25000.50000.0833  plane waves:  24746
 k-point 89 :  0.33330.50000.0833  plane waves:  24734
 k-point 90 :  0.41670.50000.0833  plane waves:  24742
 k-point 91 :  0.50000.50000.0833  plane waves:  24728
 k-point 92 :  0.00000.16670.1667  plane waves:  24759
 k-point 93 :  0.08330.16670.1667  plane waves:  24745
 k-point 94 :  0.16670.16670.1667  plane waves:  24765
 k-point 95 :  0.25000.16670.1667  plane waves:  24732
 k-point 96 :  0.33330.16670.1667  plane waves:  24697
 k-point 97 :  0.41670.16670.1667  plane waves:  24748
 k-point 98 :  0.50000.16670.1667  plane waves:  24730
 k-point 99 :  0.00000.25000.1667  plane waves:  24738
 k-point ** :  0.08330.25000.1667  plane waves:  24745
 k-point ** :  0.16670.25000.1667  plane waves:  24732
 k-point ** :  0.25000.25000.1667  plane waves:  24731
 k-point ** :  0.33330.25000.1667  plane waves:  24733
 k-point ** :  0.41670.25000.1667  plane waves:  24753
 k-point ** :  0.50000.25000.1667  plane waves:  24756
 k-point ** :  0.00000.33330.1667  plane waves:  24702
 k-point ** :  0.08330.33330.1667  plane waves:  24716
 k-point ** :  0.16670.33330.1667  plane waves:  24697
 k-point ** :  0.25000.33330.1667  plane waves:  24733
 k-point ** :  0.33330.33330.1667  plane waves:  24740
 k-point ** :  0.41670.33330.1667  plane waves:  24749
 k-point ** :  0.50000.33330.1667  plane waves:  24778
 k-point ** :  0.00000.41670.1667  plane waves:  24719
 k-point ** :  0.08330.41670.1667  plane waves:  24740
 k-point ** :  0.16670.41670.1667  plane waves:  24748
 k-point ** :  0.25000.41670.1667  plane waves:  24753
 k-point ** :  0.33330.41670.1667  plane waves:  24749
 k-point ** :  0.41670.41670.1667  plane waves:  24775
 k-point ** :  0.50000.41670.1667  plane waves:  24746
 k-point ** :  0.00000.50000.1667  plane waves:  24716
 k-point ** :  0.08330.50000.1667  plane waves:  24730
 k-point ** :  0.16670.50000.1667  plane waves:  24730
 k-point ** :  0.25000.50000.1667  plane waves:  24756
 k-point ** :  0.33330.50000.1667  plane waves:  24778
 k-point ** :  0.41670.50000.1667  plane waves:  24746
 k-point ** :  0.50000.50000.1667  plane waves:  24760
 k-point ** :  0.00000.25000.2500  plane waves:  24728
 k-point ** :  0.08330.25000.2500  plane waves:  24740
 k-point ** :  0.16670.25000.2500  plane waves:  24731
 k-point ** :  0.25000.25000.2500  plane waves:  24762
 k-point ** :  0.33330.25000.2500  plane waves:  24767
 k-point ** :  0.41670.25000.2500  plane waves:  24762
 k-point ** :  0.50000.25000.2500  plane waves:  24748
 k-point ** :  0.00000.33330.2500  plane waves:  24716
 k-point ** :  0.08330.33330.2500  plane waves:  24725
 k-point ** :  0.16670.33330.2500  plane waves:  24733
 k-point ** :  0.25000.33330.2500  plane waves:  24767
 k-point ** :  0.33330.33330.2500  plane waves:  24763
 k-point ** :  0.41670.33330.2500  plane waves:  24771
 k-point ** :  0.50000.33330.2500  plane waves:  24776
 k-point ** :  0.00000.41670.2500  plane waves:  24739
 k-point ** :  0.08330.41670.2500  plane waves:  24733
 k-point ** :  0.16670.41670.2500  plane waves:  24753
 k-point ** :  0.25000.41670.2500  plane waves:  24762
 k-point ** :  0.33330.41670.2500  plane waves:  24771
 k-point ** :  0.41670.41670.2500  plane waves:  24762
 k-point ** :  0.50000.41670.2500  plane waves:  24770
 k-point ** :  0.00000.50000.2500  plane waves:  24712
 k-point ** :  0.08330.50000.2500  plane waves:  24746
 k-point ** :  0.16670.50000.2500  plane waves:  24756
 k-point ** :  0.25000.50000.2500  plane waves:  24748
 k-point ** :  0.33330.50000.2500  plane waves:  24776
 k-point ** :  0.41670.50000.2500  plane waves:  24770
 k-point ** :  0.50000.50000.2500  plane waves:  24788
 k-point ** :  0.00000.33330.3333  plane waves:  24724
 k-point ** :  0.08330.33330.3333  plane waves:  24746
 k-point ** :  0.16670.33330.3333  plane waves:  24740
 k-point ** :  0.25000.33330.3333  plane waves:  24763
 k-point ** :  0.33330.33330.3333  plane waves:  24783
 k-point ** :  0.41670.33330.3333  plane waves:  24783
 k-point ** :  0.50000.33330.3333  plane waves:  24756
 k-point ** :  0.00000.41670.3333  plane waves:  24726
 k-point ** :  0.08330.41670.3333  plane waves:  24734
 k-point ** :  0.16670.41670.3333  plane waves:  24749
 k-point ** :  0.25000.41670.3333  plane waves:  24771
 k-point ** :  0.33330.41670.3333  plane waves:  24783
 k-point ** :  0.41670.41670.3333  plane waves:  24770
 k-point ** :  0.50000.41670.3333  plane waves:  24772
 k-point ** :  0.00000.50000.3333  plane waves:  24762
 k-point ** :  0.08330.50000.3333  plane waves:  24734
 k-point ** :  0.16670.50000.3333  plane waves:  24778
 k-point ** :  0.25000.50000.3333  plane waves:  24776
 k-point ** :  0.33330.50000.3333  plane waves:  24756
 k-point ** :  0.41670.50000.3333  plane waves:  24772
 k-point ** :  0.50000.50000.3333  plane waves:  24768
 k-point ** :  0.00000.41670.4167  plane waves:  24750
 k-point ** :  0.08330.41670.4167  plane waves:  24748
 k-point ** :  0.16670.41670.4167  plane waves:  24775
 k-point ** :  0.25000.41670.4167  plane waves:  24762
 k-point ** :  0.33330.41670.4167  plane waves:  24770
 k-point ** :  0.41670.41670.4167  plane waves:  24774
 k-point ** :  0.50000.41670.4167  plane waves:  24794
 k-point ** :  0.00000.50000.4167  plane waves:  24742
 k-point ** :  0.08330.50000.4167  plane waves:  24742
 k-point ** :  0.16670.50000.4167  plane waves:  24746
 k-point ** :  0.25000.50000.4167  plane waves:  24770
 k-point ** :  0.33330.50000.4167  plane waves:  24772
 k-point ** :  0.41670.50000.4167  plane waves:  24794
 k-point ** :  0.50000.50000.4167  plane waves:  24776
 k-point ** :  0.00000.50000.5000  plane waves:  24700
 k-point ** :  0.08330.50000.5000  plane waves:  24728
 k-point ** :  0.16670.50000.5000  plane waves:  24760
 k-point ** :  0.25000.50000.5000  plane waves:  24788
 k-point ** :  0.33330.50000.5000  plane waves:  24768
 k-point ** :  0.41670.50000.5000  plane waves:  24776
 k-point ** :  0.50000.50000.5000  plane waves:  24920

 maximum and minimum number of plane-waves per node :  24920 24697

 maximum number of plane-waves:  24920
 maximal index in each direction: 
   IXMAX= 18   IYMAX= 18   IZMAX= 18
   IXMIN=-18   IYMIN=-18   IZMIN=-18

 WARNING: wrap around error must be expected set NGX to  74
 WARNING: wrap around error must be expected set NGY to  74
 WARNING: wrap around error must be expected set NGZ to  74

 parallel 3dFFT wavefunction:
    minimum data exchange during FFTs selected (reduces bandwidth)
 parallel 3dFFT charge:
    minimum data exchange during FFTs selected (reduces bandwidth)

 For storing wavefunctions ******* MBYTES are necessary
 For predicting wavefunctions  185.91 MBYTES are necessary
Broyden mixing: mesh for mixing (old mesh)
   NGX = 37   NGY = 37   NGZ = 37
  (NGX  =144   NGY  =144   NGZ  =144)
 gives a total of  50653 points
 initial charge density was supplied:
 charge density of overlapping atoms calculated
 number of electron  352.0000000 magnetization 
 keeping initial charge density in first step


--------------------------------------------------------------------------------------------------------


 Maximum index for augmentation-charges        21049 (set IRDMAX)


--------------------------------------------------------------------------------------------------------


 First call to EWALD:  gamma=   0.219
 Maximum number of real-space cells 3x 3x 3
 Maximum number of reciprocal cells 3x 3x 3

    FEWALD:  VPU time    0.00: CPU time    0.00


----------------------------------------- Iteration    1(   1)  ---------------------------------------


    POTLOK:  VPU time    0.16: CPU time    0.16
    SETDIJ:  VPU time    0.30: CPU time    0.30
    EDDAV :  VPU time  569.61: CPU time  569.50
    DOS   :  VPU time    0.00: CPU time   -0.00
    ------------------------------------------
      LOOP:  VPU time  570.14: CPU time  570.03

 eigenvalue-minimisations  : 87808
 total energy-change (2. order) : 0.4836524E+04  (-0.2104953E+05)
 number of electron  352.0000000 magnetization 
 augmentation part   352.0000000 magnetization 

 Free energy of the ion-electron system (eV)
  ---------------------------------------------------
  alpha Z        PSCENC =      3614.86417341
  Ewald energy   TEWEN  =    -31577.86426868
  -1/2 Hartree   DENC   =     -3852.10144103
  -V(xc)+E(xc)   XCENC  =       495.02429449
  PAW double counting   =     23920.39735419   -23172.13309131
  entropy T*S    EENTRO =        -0.00072059
  eigenvalues    EBANDS =      5774.54826858
  atomic energy  EATOM  =     29633.78979189
  ---------------------------------------------------
  free energy    TOTEN  =      4836.52436096 eV

  energy without entropy =     4836.52508155  energy(sigma->0) =     4836.52472125


--------------------------------------------------------------------------------------------------------




----------------------------------------- Iteration    1(   2)  ---------------------------------------


    EDDAV :  VPU time  570.03: CPU time  569.86
    DOS   :  VPU time    0.00: CPU time   -0.00
    ------------------------------------------
      LOOP:  VPU time  570.10: CPU time  569.94

 eigenvalue-minimisations  : 87808
 total energy-change (2. order) :-0.4696307E+04  (-0.4458897E+04)
 number of electron  352.0000000 magnetization 
 augmentation part   352.0000000 magnetization 

 Free energy of the ion-electron system (eV)
  ---------------------------------------------------
  alpha Z        PSCENC =      3614.86417341
  Ewald energy   TEWEN  =    -31577.86426868
  -1/2 Hartree   DENC   =     -3852.10144103
  -V(xc)+E(xc)   XCENC  =       495.02429449
  PAW double counting   =     23920.39735419   -23172.13309131
  entropy T*S    EENTRO =        -0.00049270
  eigenvalues    EBANDS =      1078.24120902
  atomic energy  EATOM  =     29633.78979189
  ---------------------------------------------------
  free energy    TOTEN  =       140.21752929 eV

  energy without entropy =      140.21802199  energy(sigma->0) =      140.21777564


--------------------------------------------------------------------------------------------------------




----------------------------------------- Iteration    1(   3)  ---------------------------------------


    EDDAV :  VPU time  621.68: CPU time  621.49
    DOS   :  VPU time    0.00: CPU time   -0.00
    ------------------------------------------
      LOOP:  VPU time  621.75: CPU time  621.56

 eigenvalue-minimisations  : 96400
 total energy-change (2. order) :-0.2448224E+03  (-0.2304267E+03)
 number of electron  352.0000000 magnetization 
 augmentation part   352.0000000 magnetization 

 Free energy of the ion-electron system (eV)
  ---------------------------------------------------
  alpha Z        PSCENC =      3614.86417341
  Ewald energy   TEWEN  =    -31577.86426868
  -1/2 Hartree   DENC   =     -3852.10144103
  -V(xc)+E(xc)   XCENC  =       495.02429449
  PAW double counting   =     23920.39735419   -23172.13309131
  entropy T*S    EENTRO =        -0.00065089
  eigenvalues    EBANDS =       833.41896518
  atomic energy  EATOM  =     29633.78979189
  ---------------------------------------------------
  free energy    TOTEN  =      -104.60487274 eV

  energy without entropy =     -104.60422185  energy(sigma->0) =     -104.60454729


--------------------------------------------------------------------------------------------------------




----------------------------------------- Iteration    1(   4)  ---------------------------------------


    EDDAV :  VPU time  618.49: CPU time  618.30
    DOS   :  VPU time    0.00: CPU time   -0.00
    ------------------------------------------
      LOOP:  VPU time  618.56: CPU time  618.37

 eigenvalue-minimisations  : 95776
 total energy-change (2. order) :-0.5732209E+01  (-0.5679342E+01)
 number of electron  352.0000000 magnetization 
 augmentation part   352.0000000 magnetization 

 Free energy of the ion-electron system (eV)
  ---------------------------------------------------
  alpha Z        PSCENC =      3614.86417341
  Ewald energy   TEWEN  =    -31577.86426868
  -1/2 Hartree   DENC   =     -3852.10144103
  -V(xc)+E(xc)   XCENC  =       495.02429449
  PAW double counting   =     23920.39735419   -23172.13309131
  entropy T*S    EENTRO =        -0.00076751
  eigenvalues    EBANDS =       827.68687238
  atomic energy  EATOM  =     29633.78979189
  ---------------------------------------------------
  free energy    TOTEN  =      -110.33708216 eV

  energy without entropy =     -110.33631465  energy(sigma->0) =     -110.33669841


--------------------------------------------------------------------------------------------------------




----------------------------------------- Iteration    1(   5)  ---------------------------------------


    EDDAV :  VPU time  609.48: CPU time  609.30
    DOS   :  VPU time    0.00: CPU time   -0.00
    CHARGE:  VPU time   23.44: CPU time   23.43
    MIXING:  VPU time    0.00: CPU time    0.00
    ------------------------------------------
      LOOP:  VPU time  632.99: CPU time  632.80

 eigenvalue-minimisations  : 94432
 total energy-change (2. order) :-0.6355397E-01  (-0.6352144E-01)
 number of electron  352.0000007 magnetization 
 augmentation part   123.8274501 magnetization 

 Broyden mixing:
  rms(total) = 0.16601E+01    rms(broyden)= 0.16601E+01
  rms(prec ) = 0.25456E+01
  weight for this iteration     100.00

 Free energy of the ion-electron system (eV)
  ---------------------------------------------------
  alpha Z        PSCENC =      3614.86417341
  Ewald energy   TEWEN  =    -31577.86426868
  -1/2 Hartree   DENC   =     -3852.10144103
  -V(xc)+E(xc)   XCENC  =       495.02429449
  PAW double counting   =     23920.39735419   -23172.13309131
  entropy T*S    EENTRO =        -0.00076651
  eigenvalues    EBANDS =       827.62331740
  atomic energy  EATOM  =     29633.78979189
  ---------------------------------------------------
  free energy    TOTEN  =      -110.40063613 eV

  energy without entropy =     -110.39986963  energy(sigma->0) =     -110.40025288


--------------------------------------------------------------------------------------------------------




----------------------------------------- Iteration    1(   6)  ---------------------------------------


    POTLOK:  VPU time    0.15: CPU time    0.15
    SETDIJ:  VPU time    0.33: CPU time    0.33
    EDDAV :  VPU time  620.03: CPU time  619.84
    DOS   :  VPU time    0.00: CPU time   -0.00
    CHARGE:  VPU time   23.41: CPU time   23.40
    MIXING:  VPU time    0.00: CPU time    0.00
    ------------------------------------------
      LOOP:  VPU time  643.99: CPU time  643.79

 eigenvalue-minimisations  : 96240
 total energy-change (2. order) : 0.7284866E+01  (-0.1639607E+01)
 number of electron  352.0000007 magnetization 
 augmentation part   127.6837675 magnetization 

 Broyden mixing:
  rms(total) = 0.48093E+00    rms(broyden)= 0.48093E+00
  rms(prec ) = 0.72899E+00
  weight for this iteration     100.00

 eigenvalues of (default mixing * dielectric matrix)
  average eigenvalue GAMMA=   1.2987
  1.2987

 Free energy of the ion-electron system (eV)
  ---------------------------------------------------
  alpha Z        PSCENC =      3614.86417341
  Ewald energy   TEWEN  =    -31577.86426868
  -1/2 Hartree   DENC   =     -3617.56094596
  -V(xc)+E(xc)   XCENC  =       484.74963169
  PAW double counting   =     23880.54001245   -23175.02206371
  entropy T*S    EENTRO =        -0.00048567
  eigenvalues    EBANDS =       653.38838432
  atomic energy  EATOM  =     29633.78979189
  ---------------------------------------------------
  free energy    TOTEN  =      -103.11577025 eV

  energy without entropy =     -103.11528458  energy(sigma->0) =     -103.11552742


--------------------------------------------------------------------------------------------------------




----------------------------------------- Iteration    1(   7)  ---------------------------------------


    POTLOK:  VPU time    0.15: CPU time    0.15
    SETDIJ:  VPU time    0.32: CPU time    0.32
    EDDAV :  VPU time  636.29: CPU time  636.32
    DOS   :  VPU time    0.00: CPU time   -0.00
    CHARGE:  VPU time   22.99: CPU time   23.00
    MIXING:  VPU time    0.00: CPU time    0.00
    ------------------------------------------
      LOOP:  VPU time  659.82: CPU time  659.86

 eigenvalue-minimisations  : 99696
 total energy-change (2. order) : 0.6720360E+00  (-0.1524858E+00)
 number of electron  352.0000007 magnetization 
 augmentation part   128.8450240 magnetization 

 Broyden mixing:
  rms(total) = 0.16248E+00    rms(broyden)= 0.16248E+00
  rms(prec ) = 0.19253E+00
  weight for this iteration     100.00

 eigenvalues of (default mixing * dielectric matrix)
  average eigenvalue GAMMA=   1.8342
  1.2610  2.4075

 Free energy of the ion-electron system (eV)
  ---------------------------------------------------
  alpha Z        PSCENC =      3614.86417341
  Ewald energy   TEWEN  =    -31577.86426868
  -1/2 Hartree   DENC   =     -3531.60278334
  -V(xc)+E(xc)   XCENC  =       480.93148739
  PAW double counting   =     24052.98113066   -23376.65897471
  entropy T*S    EENTRO =        -0.00084488
  eigenvalues    EBANDS =       601.11655406
[...]
     80       1.5152      2.00000
     81       1.5864      2.00000
     82       1.5864      2.00000
     83       1.5878      2.00000
     84       1.5880      2.00000
     85       1.5901      2.00000
     86       1.5910      2.00000
     87       1.5911      2.00000
     88       1.5911      2.00000
     89       1.5912      2.00000
     90       1.5912      2.00000
     91       1.5913      2.00000
     92       1.5913      2.00000
     93       1.5914      2.00000
     94       1.5914      2.00000
     95       1.5915      2.00000
     96       1.5915      2.00000
     97       1.5916      2.00000
     98       1.5916      2.00000
     99       1.5917      2.00000
    100       1.5927      2.00000
    101       1.5948      2.00000
    102       1.5949      2.00000
    103       1.5965      2.00000
    104       1.5965      2.00000
    105       2.4542      2.00000
    106       2.4561      2.00000
    107       2.4561      2.00000
    108       2.4591      2.00000
    109       2.4593      2.00000
    110       2.4594      2.00000
    111       2.4594      2.00000
    112       2.4598      2.00000
    113       2.4600      2.00000
    114       2.4600      2.00000
    115       2.4600      2.00000
    116       2.4600      2.00000
    117       2.4601      2.00000
    118       2.4602      2.00000
    119       2.4602      2.00000
    120       2.4602      2.00000
    121       2.4604      2.00000
    122       2.4608      2.00000
    123       2.4608      2.00000
    124       2.4608      2.00000
    125       2.4611      2.00000
    126       2.4641      2.00000
    127       2.4641      2.00000
    128       2.4659      2.00000
    129       2.9846      2.00000
    130       2.9865      2.00000
    131       2.9867      2.00000
    132       2.9867      2.00000
    133       2.9881      2.00000
    134       2.9881      2.00000
    135       2.9884      2.00000
    136       2.9885      2.00000
    137       2.9886      2.00000
    138       2.9888      2.00000
    139       2.9891      2.00000
    140       2.9891      2.00000
    141       2.9906      2.00000
    142       2.9906      2.00000
    143       2.9907      2.00000
    144       2.9926      2.00000
    145       4.1680      2.00000
    146       4.1680      2.00000
    147       4.1684      2.00000
    148       4.1687      2.00000
    149       4.1687      2.00000
    150       4.1687      2.00000
    151       4.1687      2.00000
    152       4.1687      2.00000
    153       4.1689      2.00000
    154       4.1690      2.00000
    155       4.1690      2.00000
    156       4.1691      2.00000
    157       4.1693      2.00000
    158       4.1694      2.00000
    159       4.1694      2.00000
    160       4.1695      2.00000
    161       4.1696      2.00000
    162       4.1697      2.00000
    163       4.1697      2.00000
    164       4.1697      2.00000
    165       4.1698      2.00000
    166       4.1701      2.00000
    167       4.1704      2.00000
    168       4.1704      2.00000
    169       7.1703      0.00000
    170       7.1728      0.00000
    171       7.1728      0.00000
    172       7.1750      0.00000
    173       7.1758      0.00000
    174       7.1760      0.00000
    175       7.1760      0.00000
    176       7.1760      0.00000
    177       7.1761      0.00000
    178       7.1762      0.00000
    179       7.1763      0.00000
    180       7.1763      0.00000
    181       7.1766      0.00000
    182       7.1766      0.00000
    183       7.1767      0.00000
    184       7.1768      0.00000
    185       7.1768      0.00000
    186       7.1768      0.00000
    187       7.1769      0.00000
    188       7.1770      0.00000
    189       7.1778      0.00000
    190       7.1801      0.00000
    191       7.1801      0.00000
    192       7.1826      0.00000
    193      11.6968      0.00000
    194      11.6968      0.00000
    195      11.7005      0.00000
    196      11.7009      0.00000
    197      11.7015      0.00000
    198      11.7020      0.00000
    199      11.7020      0.00000
    200      11.7027      0.00000
    201      11.7028      0.00000
    202      11.7028      0.00000
    203      11.7029      0.00000
    204      11.7029      0.00000
    205      11.7030      0.00000
    206      11.7030      0.00000
    207      11.7030      0.00000
    208      11.7030      0.00000
    209      11.7031      0.00000
    210      11.7038      0.00000
    211      11.7038      0.00000
    212      11.7043      0.00000
    213      11.7050      0.00000
    214      11.7054      0.00000
    215      11.7091      0.00000
    216      11.7091      0.00000
    217      17.5942      0.00000
    218      17.5942      0.00000
    219      17.5948      0.00000
    220      17.5958      0.00000
    221      17.5992      0.00000
    222      17.6001      0.00000
    223      17.6007      0.00000
    224      17.6007      0.00000


--------------------------------------------------------------------------------------------------------


 soft charge-density along one line, spin component           1
         0         1         2         3         4         5         6         7         8         9
 total charge-density along one line
 
 pseudopotential strength for first ion, spin component:           1
 -9.680  -0.000  -0.000  -0.000  -0.000  -0.121   0.000   0.000
 -0.000  -9.680   0.000   0.000   0.000   0.000  -0.121  -0.000
 -0.000   0.000  -9.665   0.000  -0.000   0.000  -0.000  -0.123
 -0.000   0.000   0.000  -9.680  -0.000   0.000  -0.000  -0.000
 -0.000   0.000  -0.000  -0.000  -9.665   0.000  -0.000   0.000
 -0.121   0.000   0.000   0.000   0.000   0.287  -0.000  -0.000
  0.000  -0.121  -0.000  -0.000  -0.000  -0.000   0.287   0.000
  0.000  -0.000  -0.123  -0.000   0.000  -0.000   0.000   0.287
  0.000  -0.000  -0.000  -0.121   0.000  -0.000   0.000   0.000
  0.000  -0.000   0.000   0.000  -0.123  -0.000   0.000  -0.000
 -0.000   0.000   0.000   0.000  -0.000  -0.000   0.000  -0.000
  0.000  -0.000  -0.000  -0.000   0.000  -0.000   0.000   0.000
  0.000  -0.000   0.000  -0.000  -0.000   0.000   0.000  -0.000
 -0.000  -0.000   0.000   0.000  -0.000   0.000   0.000   0.000
 -0.000  -0.000  -0.000  -0.000   0.000   0.000   0.000  -0.000
  0.000   0.000  -0.000   0.000   0.000  -0.000  -0.000   0.000
  0.000   0.000  -0.000   0.000   0.000  -0.000  -0.000   0.000
  0.000   0.000  -0.000   0.000   0.000  -0.000  -0.000   0.000
 total augmentation occupancy for first ion, spin component:           1
  1.900  -0.000  -0.004  -0.001  -0.001  -0.019   0.000   0.001   0.001   0.001   0.006   0.001   0.000   0.000  -0.000  -0.000
 -0.000   1.908  -0.001  -0.002  -0.003   0.000  -0.027   0.002   0.002   0.001   0.006   0.001   0.000   0.000  -0.000  -0.000
 -0.004  -0.001   1.963  -0.000  -0.004   0.001   0.002  -0.081   0.001   0.003   0.013   0.004   0.000  -0.000  -0.000  -0.000
 -0.001  -0.002  -0.000   1.915   0.001   0.001   0.002   0.001  -0.035   0.001   0.005   0.000   0.000   0.000  -0.000  -0.000
 -0.001  -0.003  -0.004   0.001   1.948   0.001   0.001   0.003   0.001  -0.069   0.008   0.003   0.000   0.000   0.000   0.000
 -0.019   0.000   0.001   0.001   0.001   0.237   0.000   0.002  -0.001  -0.001  -0.002   0.002   0.002  -0.000   0.000  -0.000
  0.000  -0.027   0.002   0.002   0.001   0.000   0.243  -0.004  -0.001   0.002  -0.002   0.002  -0.000  -0.000   0.000   0.000
  0.001   0.002  -0.081   0.001   0.003   0.002  -0.004   0.196  -0.003  -0.002  -0.010  -0.002   0.000   0.000  -0.001   0.000
  0.001   0.002   0.001  -0.035   0.001  -0.001  -0.001  -0.003   0.250  -0.004  -0.001   0.002  -0.000   0.002   0.000   0.000
  0.001   0.001   0.003   0.001  -0.069  -0.001   0.002  -0.002  -0.004   0.189  -0.006  -0.001  -0.000  -0.000   0.001   0.000
  0.006   0.006   0.013   0.005   0.008  -0.002  -0.002  -0.010  -0.001  -0.006   1.094  -0.414   0.000  -0.000   0.003   0.000
  0.001   0.001   0.004   0.000   0.003   0.002   0.002  -0.002   0.002  -0.001  -0.414   0.280   0.000   0.000  -0.002   0.000
  0.000   0.000   0.000   0.000   0.000   0.002  -0.000   0.000  -0.000  -0.000   0.000   0.000   0.176   0.001   0.001  -0.013
  0.000   0.000  -0.000   0.000   0.000  -0.000  -0.000   0.000   0.002  -0.000  -0.000   0.000   0.001   0.176  -0.000  -0.000
 -0.000  -0.000  -0.000  -0.000   0.000   0.000   0.000  -0.001   0.000   0.001   0.003  -0.002   0.001  -0.000   0.176  -0.000
 -0.000  -0.000  -0.000  -0.000   0.000  -0.000   0.000   0.000   0.000   0.000   0.000   0.000  -0.013  -0.000  -0.000   0.001
 -0.000  -0.000   0.000  -0.000   0.000   0.000   0.000  -0.000  -0.000  -0.000   0.000   0.000  -0.000  -0.013  -0.000   0.000
  0.000  -0.000  -0.000   0.000   0.000  -0.000  -0.000   0.000  -0.000  -0.000  -0.000   0.000  -0.000  -0.000  -0.013   0.000


------------------------ aborting loop because EDIFF is reached ----------------------------------------




--------------------------------------------------------------------------------------------------------


    CHARGE:  VPU time   23.51: CPU time   24.48
    FORLOC:  VPU time    0.14: CPU time    0.14
    FORNL :  VPU time  204.30: CPU time  204.34
    STRESS:  VPU time  537.38: CPU time  537.23
    FORCOR:  VPU time    0.23: CPU time    0.24
    FORHAR:  VPU time    0.05: CPU time    0.06
    MIXING:  VPU time    0.02: CPU time    0.51


--------------------------------------------------------------------------------------------------------



  FREE ENERGIE OF THE ION-ELECTRON SYSTEM (eV)
  ---------------------------------------------------
  free  energy   TOTEN  =      -102.327840 eV

  energy  without entropy=     -102.326957  energy(sigma->0) =     -102.327398
 

  FORCE on cell =-STRESS in cart. coord.  units (eV/reduce length):
  Direction    X        Y        Z        XY       YZ       ZX
  --------------------------------------------------------------------------------------
  Alpha Z   3614.86   3614.86   3614.86
  Ewald   -10526.02 -10525.99 -10525.99      0.00     -0.00     -0.00
  Hartree   1168.61   1168.64   1168.64     -0.00     -0.00     -0.00
  E(xc)    -1596.03  -1596.03  -1596.03     -0.00     -0.00      0.00
  Local     2653.10   2653.03   2653.03      0.00      0.00     -0.00
  n-local  -1544.14  -1550.28  -1538.00      4.26      3.60      2.96
  augment   1371.84   1371.84   1371.84     -0.00     -0.00     -0.00
  Kinetic   4912.07   4906.16   4917.97      0.72     -0.56     -1.85
  -------------------------------------------------------------------------------------
  Total       54.29     54.29     54.29      0.00      0.00      0.00
  in kB      163.95    163.95    163.95      0.00      0.00      0.00
  external pressure =      163.95 kB  Pullay stress =        0.00 kB


 VOLUME and BASIS-vectors are now :
 -----------------------------------------------------------------------------
  energy-cutoff  :      750.00
  volume of cell :      530.52
      direct lattice vectors                 reciprocal lattice vectors
     8.095332690  0.000000000  0.000000000     0.123527968  0.000000000  0.000000000
     0.000000000  8.095332690  0.000000000     0.000000000  0.123527968  0.000000000
     0.000000000  0.000000000  8.095332690     0.000000000  0.000000000  0.123527968

  length of vectors
     8.095332690  8.095332690  8.095332690     0.123527968  0.123527968  0.123527968


 FORCES acting on ions
    electron-ion (+dipol)            ewald-force                    non-local-force                 convergence-correction
 -----------------------------------------------------------------------------------------------
   0.421E+01 -.857E-13 0.235E-07   -.426E+01 -.853E-13 0.604E-13   -.367E-01 -.538E-19 0.118E-19   -.239E-04 0.606E-13 -.500E-13
   -.111E+01 -.558E-13 -.239E-07   0.113E+01 0.142E-13 -.711E-13   -.855E-02 -.157E-19 0.280E-20   0.448E-07 0.685E-13 -.121E-12
   0.354E+00 0.345E-12 -.165E-11   -.356E+00 0.178E-13 -.213E-13   0.197E-02 -.233E-19 -.303E-20   -.479E-05 -.790E-13 -.328E-13
   -.285E+00 0.323E-11 -.210E-11   0.280E+00 0.142E-13 -.426E-13   0.371E-02 -.266E-19 0.267E-21   0.482E-05 -.852E-13 -.853E-13
   0.354E+00 -.783E-13 0.226E-10   -.356E+00 0.320E-13 -.213E-13   0.197E-02 -.320E-20 0.110E-19   -.445E-05 0.470E-13 0.128E-13
   -.285E+00 -.905E-13 0.237E-10   0.280E+00 0.284E-13 -.995E-13   0.371E-02 0.491E-21 0.113E-19   0.473E-05 0.458E-13 0.529E-13
   0.148E+00 0.338E-12 -.933E-11   -.147E+00 0.178E-13 -.533E-13   -.868E-03 0.847E-20 -.573E-20   -.389E-05 -.637E-13 -.181E-13
   -.137E+00 -.254E-11 -.813E-11   0.138E+00 0.142E-13 -.853E-13   -.478E-03 -.161E-20 0.241E-20   0.196E-05 -.626E-13 -.341E-14
   -.532E+00 -.102E+01 0.224E-13   0.541E+00 0.104E+01 -.121E-12   0.458E-02 0.109E-02 -.403E-20   0.461E-05 0.361E-05 -.835E-13
   -.536E+00 0.102E+01 0.135E-11   0.544E+00 -.103E+01 -.782E-13   0.444E-02 -.980E-03 -.136E-19   0.424E-05 -.250E-05 -.589E-13
   -.532E+00 0.102E+01 0.821E-13   0.541E+00 -.104E+01 -.995E-13   0.458E-02 -.109E-02 -.323E-20   0.461E-05 -.361E-05 -.963E-13
   -.536E+00 -.102E+01 0.137E-11   0.544E+00 0.103E+01 -.995E-13   0.444E-02 0.980E-03 0.142E-19   0.424E-05 0.250E-05 -.605E-13
   -.160E-01 -.851E-01 0.851E-11   0.165E-01 0.854E-01 -.107E-13   -.553E-03 -.182E-03 0.464E-21   -.102E-06 0.161E-05 0.124E-13
   -.177E-01 0.850E-01 0.547E-11   0.181E-01 -.853E-01 -.391E-13   -.561E-03 0.179E-03 -.605E-22   0.192E-06 -.140E-06 -.778E-14
   -.160E-01 0.851E-01 0.851E-11   0.165E-01 -.854E-01 -.114E-12   -.553E-03 0.182E-03 0.158E-20   -.102E-06 -.161E-05 0.227E-13
   -.177E-01 -.850E-01 0.522E-11   0.181E-01 0.853E-01 -.142E-12   -.561E-03 -.179E-03 -.178E-20   0.192E-06 0.140E-06 0.575E-14
   -.532E+00 -.780E-13 -.102E+01   0.541E+00 0.462E-13 0.104E+01   0.458E-02 0.274E-20 0.109E-02   0.453E-05 0.586E-13 0.368E-05
   -.536E+00 -.108E-12 0.102E+01   0.544E+00 0.462E-13 -.103E+01   0.444E-02 -.270E-19 -.980E-03   0.416E-05 0.596E-13 -.257E-05
   -.160E-01 0.338E-12 -.851E-01   0.165E-01 0.249E-13 0.854E-01   -.553E-03 0.309E-20 -.182E-03   -.803E-07 -.695E-13 0.168E-05
   -.177E-01 -.383E-11 0.850E-01   0.181E-01 0.249E-13 -.853E-01   -.561E-03 0.638E-21 0.179E-03   0.214E-06 -.824E-13 -.211E-06
   -.532E+00 -.885E-13 0.102E+01   0.541E+00 0.000E+00 -.104E+01   0.458E-02 0.599E-20 -.109E-02   0.453E-05 0.481E-13 -.368E-05
   -.536E+00 -.855E-13 -.102E+01   0.544E+00 0.000E+00 0.103E+01   0.444E-02 0.121E-19 0.980E-03   0.416E-05 0.532E-13 0.257E-05
   -.160E-01 0.350E-12 0.851E-01   0.165E-01 0.142E-13 -.854E-01   -.553E-03 0.820E-21 0.182E-03   -.803E-07 -.574E-13 -.168E-05
   -.177E-01 -.408E-11 -.850E-01   0.181E-01 0.142E-13 0.853E-01   -.561E-03 0.117E-20 -.179E-03   0.214E-06 -.733E-13 0.211E-06
   0.664E+00 0.257E-02 0.257E-02   -.672E+00 -.261E-02 -.261E-02   0.361E-02 0.123E-04 0.123E-04   -.514E-05 0.746E-06 0.745E-06
   -.375E+00 -.765E-03 -.765E-03   0.378E+00 0.782E-03 0.782E-03   -.270E-02 -.164E-04 -.164E-04   0.263E-05 0.474E-06 0.474E-06
   0.664E+00 -.257E-02 0.257E-02   -.672E+00 0.261E-02 -.261E-02   0.361E-02 -.123E-04 0.123E-04   -.514E-05 -.746E-06 0.745E-06
   -.375E+00 0.765E-03 -.765E-03   0.378E+00 -.782E-03 0.782E-03   -.270E-02 0.164E-04 -.164E-04   0.263E-05 -.474E-06 0.474E-06
   0.664E+00 0.257E-02 -.257E-02   -.672E+00 -.261E-02 0.261E-02   0.361E-02 0.123E-04 -.123E-04   -.514E-05 0.746E-06 -.745E-06
   -.375E+00 -.765E-03 0.765E-03   0.378E+00 0.782E-03 -.782E-03   -.270E-02 -.164E-04 0.164E-04   0.263E-05 0.474E-06 -.474E-06
   0.664E+00 -.257E-02 -.257E-02   -.672E+00 0.261E-02 0.261E-02   0.361E-02 -.123E-04 -.123E-04   -.514E-05 -.746E-06 -.745E-06
   -.375E+00 0.765E-03 0.765E-03   0.378E+00 -.782E-03 -.782E-03   -.270E-02 0.164E-04 0.164E-04   0.263E-05 -.474E-06 -.474E-06
 -----------------------------------------------------------------------------------------------
   -.145E-05 -.142E-10 -.130E-09   -.246E-13 -.129E-12 0.132E-12   0.424E-05 -.254E-18 0.678E-20   0.324E-07 -.355E-12 -.661E-12
 
 
 POSITION                                       TOTAL-FORCE (eV/Angst)
 -----------------------------------------------------------------------------------
      0.01000      0.00000      0.00000        -0.090365      0.000000      0.000000
      4.04767      0.00000      0.00000         0.005632     -0.000000     -0.000000
      0.00000      4.04767      0.00000        -0.000892     -0.000000     -0.000000
      4.04767      4.04767      0.00000        -0.001701     -0.000000     -0.000000
      0.00000      0.00000      4.04767        -0.000892     -0.000000      0.000000
      4.04767      0.00000      4.04767        -0.001701      0.000000      0.000000
      0.00000      4.04767      4.04767         0.000346     -0.000000      0.000000
      4.04767      4.04767      4.04767         0.000410     -0.000000     -0.000000
      2.02383      2.02383      0.00000         0.013273      0.016565      0.000000
      6.07150      2.02383      0.00000         0.012894     -0.016020     -0.000000
      2.02383      6.07150      0.00000         0.013273     -0.016565      0.000000
      6.07150      6.07150      0.00000         0.012894      0.016020      0.000000
      2.02383      2.02383      4.04767        -0.000103      0.000159     -0.000000
      6.07150      2.02383      4.04767        -0.000105     -0.000153      0.000000
      2.02383      6.07150      4.04767        -0.000103     -0.000159     -0.000000
      6.07150      6.07150      4.04767        -0.000105      0.000153      0.000000
      2.02383      0.00000      2.02383         0.013273     -0.000000      0.016565
      6.07150      0.00000      2.02383         0.012894     -0.000000     -0.016020
      2.02383      4.04767      2.02383        -0.000103     -0.000000      0.000159
      6.07150      4.04767      2.02383        -0.000105      0.000000     -0.000153
      2.02383      0.00000      6.07150         0.013273      0.000000     -0.016565
      6.07150      0.00000      6.07150         0.012894      0.000000      0.016020
      2.02383      4.04767      6.07150        -0.000103      0.000000     -0.000159
      6.07150      4.04767      6.07150        -0.000105      0.000000      0.000153
      0.00000      2.02383      2.02383        -0.004490     -0.000024     -0.000024
      4.04767      2.02383      2.02383         0.000822      0.000001      0.000001
      0.00000      6.07150      2.02383        -0.004490      0.000024     -0.000024
      4.04767      6.07150      2.02383         0.000822     -0.000001      0.000001
      0.00000      2.02383      6.07150        -0.004490     -0.000024      0.000024
      4.04767      2.02383      6.07150         0.000822      0.000001     -0.000001
      0.00000      6.07150      6.07150        -0.004490      0.000024      0.000024
      4.04767      6.07150      6.07150         0.000822     -0.000001     -0.000001
 -----------------------------------------------------------------------------------
    total drift:                                0.000003     -0.000000     -0.000000


--------------------------------------------------------------------------------------------------------



 mean value of Nose-termostat <S>:     1.000 mean value of <T> :     0.000
 mean temperature <T/S>/<1/S>  :     0.000

     LOOP+:  VPU time11636.74: CPU time12458.96
  
  
 General timing and accounting informations for this job:
 ========================================================
  
                  Total CPU time used (sec):    11766.670
                            User time (sec):    10402.746
                          System time (sec):     1363.925
                         Elapsed time (sec):    12589.056
  
                   Maximum memory used (kb):     9826572.
                   Average memory used (kb):           0.
  
                          Minor page faults:      3520065
                          Major page faults:        58384
                 Voluntary context switches:        92305
