<?xml version="1.0" encoding="ISO-8859-1"?>
<modeling>
 <generator>
  <i name="program" type="string">vasp</i>
  <i name="version" type="string">4.6.28 </i>
  <i name="subversion" type="string">25Jul05 complex  parallel</i>
  <i name="platform" type="string">LinuxIFC</i>
  <i name="date" type="string">2017 01 13</i>
  <i name="time" type="string">21:57:16</i>
 </generator>
 <incar>
  <i type="string" name="PREC">accurate</i>
  <i type="int" name="IALGO">    38</i>
  <i type="logical" name="ADDGRID"> T  </i>
  <i name="EDIFF">      0.00000001</i>
  <i type="int" name="IBRION">    -1</i>
  <i name="ENCUT">    750.00000000</i>
  <i type="logical" name="LREAL"> F  </i>
  <i type="int" name="ISMEAR">     0</i>
  <i name="SIGMA">      0.01000000</i>
  <i type="logical" name="LWAVE"> F  </i>
  <i type="logical" name="LCHARG"> F  </i>
 </incar>
 <kpoints>
  <generation param="Gamma">
   <v type="int" name="divisions">      12      12      12</v>
   <v name="usershift">      0.00000000      0.00000000      0.00000000</v>
   <v name="genvec1">      0.08333333      0.00000000      0.00000000</v>
   <v name="genvec2">      0.00000000      0.08333333      0.00000000</v>
   <v name="genvec3">      0.00000000      0.00000000      0.08333333</v>
   <v name="shift">      0.00000000      0.00000000      0.00000000</v>
  </generation>
  <varray name="kpointlist" >
   <v>       0.00000000      0.00000000      0.00000000</v>
   <v>       0.08333333      0.00000000      0.00000000</v>
   <v>       0.16666667      0.00000000      0.00000000</v>
   <v>       0.25000000      0.00000000      0.00000000</v>
   <v>       0.33333333      0.00000000      0.00000000</v>
   <v>       0.41666667      0.00000000      0.00000000</v>
   <v>       0.50000000      0.00000000      0.00000000</v>
   <v>       0.00000000      0.08333333      0.00000000</v>
   <v>       0.08333333      0.08333333      0.00000000</v>
   <v>       0.16666667      0.08333333      0.00000000</v>
   <v>       0.25000000      0.08333333      0.00000000</v>
   <v>       0.33333333      0.08333333      0.00000000</v>
   <v>       0.41666667      0.08333333      0.00000000</v>
   <v>       0.50000000      0.08333333      0.00000000</v>
   <v>       0.00000000      0.16666667      0.00000000</v>
   <v>       0.08333333      0.16666667      0.00000000</v>
   <v>       0.16666667      0.16666667      0.00000000</v>
   <v>       0.25000000      0.16666667      0.00000000</v>
   <v>       0.33333333      0.16666667      0.00000000</v>
   <v>       0.41666667      0.16666667      0.00000000</v>
   <v>       0.50000000      0.16666667      0.00000000</v>
   <v>       0.00000000      0.25000000      0.00000000</v>
   <v>       0.08333333      0.25000000      0.00000000</v>
   <v>       0.16666667      0.25000000      0.00000000</v>
   <v>       0.25000000      0.25000000      0.00000000</v>
   <v>       0.33333333      0.25000000      0.00000000</v>
   <v>       0.41666667      0.25000000      0.00000000</v>
   <v>       0.50000000      0.25000000      0.00000000</v>
   <v>       0.00000000      0.33333333      0.00000000</v>
   <v>       0.08333333      0.33333333      0.00000000</v>
   <v>       0.16666667      0.33333333      0.00000000</v>
   <v>       0.25000000      0.33333333      0.00000000</v>
   <v>       0.33333333      0.33333333      0.00000000</v>
   <v>       0.41666667      0.33333333      0.00000000</v>
   <v>       0.50000000      0.33333333      0.00000000</v>
   <v>       0.00000000      0.41666667      0.00000000</v>
   <v>       0.08333333      0.41666667      0.00000000</v>
   <v>       0.16666667      0.41666667      0.00000000</v>
   <v>       0.25000000      0.41666667      0.00000000</v>
   <v>       0.33333333      0.41666667      0.00000000</v>
   <v>       0.41666667      0.41666667      0.00000000</v>
   <v>       0.50000000      0.41666667      0.00000000</v>
   <v>       0.00000000      0.50000000      0.00000000</v>
   <v>       0.08333333      0.50000000      0.00000000</v>
   <v>       0.16666667      0.50000000      0.00000000</v>
   <v>       0.25000000      0.50000000      0.00000000</v>
   <v>       0.33333333      0.50000000      0.00000000</v>
   <v>       0.41666667      0.50000000      0.00000000</v>
   <v>       0.50000000      0.50000000      0.00000000</v>
   <v>       0.00000000      0.08333333      0.08333333</v>
   <v>       0.08333333      0.08333333      0.08333333</v>
   <v>       0.16666667      0.08333333      0.08333333</v>
   <v>       0.25000000      0.08333333      0.08333333</v>
   <v>       0.33333333      0.08333333      0.08333333</v>
   <v>       0.41666667      0.08333333      0.08333333</v>
   <v>       0.50000000      0.08333333      0.08333333</v>
   <v>       0.00000000      0.16666667      0.08333333</v>
   <v>       0.08333333      0.16666667      0.08333333</v>
   <v>       0.16666667      0.16666667      0.08333333</v>
   <v>       0.25000000      0.16666667      0.08333333</v>
   <v>       0.33333333      0.16666667      0.08333333</v>
   <v>       0.41666667      0.16666667      0.08333333</v>
   <v>       0.50000000      0.16666667      0.08333333</v>
   <v>       0.00000000      0.25000000      0.08333333</v>
   <v>       0.08333333      0.25000000      0.08333333</v>
   <v>       0.16666667      0.25000000      0.08333333</v>
   <v>       0.25000000      0.25000000      0.08333333</v>
   <v>       0.33333333      0.25000000      0.08333333</v>
   <v>       0.41666667      0.25000000      0.08333333</v>
   <v>       0.50000000      0.25000000      0.08333333</v>
   <v>       0.00000000      0.33333333      0.08333333</v>
   <v>       0.08333333      0.33333333      0.08333333</v>
   <v>       0.16666667      0.33333333      0.08333333</v>
   <v>       0.25000000      0.33333333      0.08333333</v>
   <v>       0.33333333      0.33333333      0.08333333</v>
   <v>       0.41666667      0.33333333      0.08333333</v>
   <v>       0.50000000      0.33333333      0.08333333</v>
   <v>       0.00000000      0.41666667      0.08333333</v>
   <v>       0.08333333      0.41666667      0.08333333</v>
   <v>       0.16666667      0.41666667      0.08333333</v>
   <v>       0.25000000      0.41666667      0.08333333</v>
   <v>       0.33333333      0.41666667      0.08333333</v>
   <v>       0.41666667      0.41666667      0.08333333</v>
   <v>       0.50000000      0.41666667      0.08333333</v>
   <v>       0.00000000      0.50000000      0.08333333</v>
   <v>       0.08333333      0.50000000      0.08333333</v>
   <v>       0.16666667      0.50000000      0.08333333</v>
   <v>       0.25000000      0.50000000      0.08333333</v>
   <v>       0.33333333      0.50000000      0.08333333</v>
   <v>       0.41666667      0.50000000      0.08333333</v>
   <v>       0.50000000      0.50000000      0.08333333</v>
   <v>       0.00000000      0.16666667      0.16666667</v>
   <v>       0.08333333      0.16666667      0.16666667</v>
   <v>       0.16666667      0.16666667      0.16666667</v>
   <v>       0.25000000      0.16666667      0.16666667</v>
   <v>       0.33333333      0.16666667      0.16666667</v>
   <v>       0.41666667      0.16666667      0.16666667</v>
   <v>       0.50000000      0.16666667      0.16666667</v>
   <v>       0.00000000      0.25000000      0.16666667</v>
   <v>       0.08333333      0.25000000      0.16666667</v>
   <v>       0.16666667      0.25000000      0.16666667</v>
   <v>       0.25000000      0.25000000      0.16666667</v>
   <v>       0.33333333      0.25000000      0.16666667</v>
   <v>       0.41666667      0.25000000      0.16666667</v>
   <v>       0.50000000      0.25000000      0.16666667</v>
   <v>       0.00000000      0.33333333      0.16666667</v>
   <v>       0.08333333      0.33333333      0.16666667</v>
   <v>       0.16666667      0.33333333      0.16666667</v>
   <v>       0.25000000      0.33333333      0.16666667</v>
   <v>       0.33333333      0.33333333      0.16666667</v>
   <v>       0.41666667      0.33333333      0.16666667</v>
   <v>       0.50000000      0.33333333      0.16666667</v>
   <v>       0.00000000      0.41666667      0.16666667</v>
   <v>       0.08333333      0.41666667      0.16666667</v>
   <v>       0.16666667      0.41666667      0.16666667</v>
   <v>       0.25000000      0.41666667      0.16666667</v>
   <v>       0.33333333      0.41666667      0.16666667</v>
   <v>       0.41666667      0.41666667      0.16666667</v>
   <v>       0.50000000      0.41666667      0.16666667</v>
   <v>       0.00000000      0.50000000      0.16666667</v>
   <v>       0.08333333      0.50000000      0.16666667</v>
   <v>       0.16666667      0.50000000      0.16666667</v>
   <v>       0.25000000      0.50000000      0.16666667</v>
   <v>       0.33333333      0.50000000      0.16666667</v>
   <v>       0.41666667      0.50000000      0.16666667</v>
   <v>       0.50000000      0.50000000      0.16666667</v>
   <v>       0.00000000      0.25000000      0.25000000</v>
   <v>       0.08333333      0.25000000      0.25000000</v>
   <v>       0.16666667      0.25000000      0.25000000</v>
   <v>       0.25000000      0.25000000      0.25000000</v>
   <v>       0.33333333      0.25000000      0.25000000</v>
   <v>       0.41666667      0.25000000      0.25000000</v>
   <v>       0.50000000      0.25000000      0.25000000</v>
   <v>       0.00000000      0.33333333      0.25000000</v>
   <v>       0.08333333      0.33333333      0.25000000</v>
   <v>       0.16666667      0.33333333      0.25000000</v>
   <v>       0.25000000      0.33333333      0.25000000</v>
   <v>       0.33333333      0.33333333      0.25000000</v>
   <v>       0.41666667      0.33333333      0.25000000</v>
   <v>       0.50000000      0.33333333      0.25000000</v>
   <v>       0.00000000      0.41666667      0.25000000</v>
   <v>       0.08333333      0.41666667      0.25000000</v>
   <v>       0.16666667      0.41666667      0.25000000</v>
   <v>       0.25000000      0.41666667      0.25000000</v>
   <v>       0.33333333      0.41666667      0.25000000</v>
   <v>       0.41666667      0.41666667      0.25000000</v>
   <v>       0.50000000      0.41666667      0.25000000</v>
   <v>       0.00000000      0.50000000      0.25000000</v>
   <v>       0.08333333      0.50000000      0.25000000</v>
   <v>       0.16666667      0.50000000      0.25000000</v>
   <v>       0.25000000      0.50000000      0.25000000</v>
   <v>       0.33333333      0.50000000      0.25000000</v>
   <v>       0.41666667      0.50000000      0.25000000</v>
   <v>       0.50000000      0.50000000      0.25000000</v>
   <v>       0.00000000      0.33333333      0.33333333</v>
   <v>       0.08333333      0.33333333      0.33333333</v>
   <v>       0.16666667      0.33333333      0.33333333</v>
   <v>       0.25000000      0.33333333      0.33333333</v>
   <v>       0.33333333      0.33333333      0.33333333</v>
   <v>       0.41666667      0.33333333      0.33333333</v>
   <v>       0.50000000      0.33333333      0.33333333</v>
   <v>       0.00000000      0.41666667      0.33333333</v>
   <v>       0.08333333      0.41666667      0.33333333</v>
   <v>       0.16666667      0.41666667      0.33333333</v>
   <v>       0.25000000      0.41666667      0.33333333</v>
   <v>       0.33333333      0.41666667      0.33333333</v>
   <v>       0.41666667      0.41666667      0.33333333</v>
   <v>       0.50000000      0.41666667      0.33333333</v>
   <v>       0.00000000      0.50000000      0.33333333</v>
   <v>       0.08333333      0.50000000      0.33333333</v>
   <v>       0.16666667      0.50000000      0.33333333</v>
   <v>       0.25000000      0.50000000      0.33333333</v>
   <v>       0.33333333      0.50000000      0.33333333</v>
   <v>       0.41666667      0.50000000      0.33333333</v>
   <v>       0.50000000      0.50000000      0.33333333</v>
   <v>       0.00000000      0.41666667      0.41666667</v>
   <v>       0.08333333      0.41666667      0.41666667</v>
   <v>       0.16666667      0.41666667      0.41666667</v>
   <v>       0.25000000      0.41666667      0.41666667</v>
   <v>       0.33333333      0.41666667      0.41666667</v>
   <v>       0.41666667      0.41666667      0.41666667</v>
   <v>       0.50000000      0.41666667      0.41666667</v>
   <v>       0.00000000      0.50000000      0.41666667</v>
   <v>       0.08333333      0.50000000      0.41666667</v>
   <v>       0.16666667      0.50000000      0.41666667</v>
   <v>       0.25000000      0.50000000      0.41666667</v>
   <v>       0.33333333      0.50000000      0.41666667</v>
   <v>       0.41666667      0.50000000      0.41666667</v>
   <v>       0.50000000      0.50000000      0.41666667</v>
   <v>       0.00000000      0.50000000      0.50000000</v>
   <v>       0.08333333      0.50000000      0.50000000</v>
   <v>       0.16666667      0.50000000      0.50000000</v>
   <v>       0.25000000      0.50000000      0.50000000</v>
   <v>       0.33333333      0.50000000      0.50000000</v>
   <v>       0.41666667      0.50000000      0.50000000</v>
   <v>       0.50000000      0.50000000      0.50000000</v>
  </varray>
  <varray name="weights" >
   <v>       0.00057870</v>
   <v>       0.00115741</v>
   <v>       0.00115741</v>
   <v>       0.00115741</v>
   <v>       0.00115741</v>
   <v>       0.00115741</v>
   <v>       0.00057870</v>
   <v>       0.00231481</v>
   <v>       0.00462963</v>
   <v>       0.00462963</v>
   <v>       0.00462963</v>
   <v>       0.00462963</v>
   <v>       0.00462963</v>
   <v>       0.00231481</v>
   <v>       0.00231481</v>
   <v>       0.00462963</v>
   <v>       0.00462963</v>
   <v>       0.00462963</v>
   <v>       0.00462963</v>
   <v>       0.00462963</v>
   <v>       0.00231481</v>
   <v>       0.00231481</v>
   <v>       0.00462963</v>
   <v>       0.00462963</v>
   <v>       0.00462963</v>
   <v>       0.00462963</v>
   <v>       0.00462963</v>
   <v>       0.00231481</v>
   <v>       0.00231481</v>
   <v>       0.00462963</v>
   <v>       0.00462963</v>
   <v>       0.00462963</v>
   <v>       0.00462963</v>
   <v>       0.00462963</v>
   <v>       0.00231481</v>
   <v>       0.00231481</v>
   <v>       0.00462963</v>
   <v>       0.00462963</v>
   <v>       0.00462963</v>
   <v>       0.00462963</v>
   <v>       0.00462963</v>
   <v>       0.00231481</v>
   <v>       0.00115741</v>
   <v>       0.00231481</v>
   <v>       0.00231481</v>
   <v>       0.00231481</v>
   <v>       0.00231481</v>
   <v>       0.00231481</v>
   <v>       0.00115741</v>
   <v>       0.00231481</v>
   <v>       0.00462963</v>
   <v>       0.00462963</v>
   <v>       0.00462963</v>
   <v>       0.00462963</v>
   <v>       0.00462963</v>
   <v>       0.00231481</v>
   <v>       0.00462963</v>
   <v>       0.00925926</v>
   <v>       0.00925926</v>
   <v>       0.00925926</v>
   <v>       0.00925926</v>
   <v>       0.00925926</v>
   <v>       0.00462963</v>
   <v>       0.00462963</v>
   <v>       0.00925926</v>
   <v>       0.00925926</v>
   <v>       0.00925926</v>
   <v>       0.00925926</v>
   <v>       0.00925926</v>
   <v>       0.00462963</v>
   <v>       0.00462963</v>
   <v>       0.00925926</v>
   <v>       0.00925926</v>
   <v>       0.00925926</v>
   <v>       0.00925926</v>
   <v>       0.00925926</v>
   <v>       0.00462963</v>
   <v>       0.00462963</v>
   <v>       0.00925926</v>
   <v>       0.00925926</v>
   <v>       0.00925926</v>
   <v>       0.00925926</v>
   <v>       0.00925926</v>
   <v>       0.00462963</v>
   <v>       0.00231481</v>
   <v>       0.00462963</v>
   <v>       0.00462963</v>
   <v>       0.00462963</v>
   <v>       0.00462963</v>
   <v>       0.00462963</v>
   <v>       0.00231481</v>
   <v>       0.00231481</v>
   <v>       0.00462963</v>
   <v>       0.00462963</v>
   <v>       0.00462963</v>
   <v>       0.00462963</v>
   <v>       0.00462963</v>
   <v>       0.00231481</v>
   <v>       0.00462963</v>
   <v>       0.00925926</v>
   <v>       0.00925926</v>
   <v>       0.00925926</v>
   <v>       0.00925926</v>
   <v>       0.00925926</v>
   <v>       0.00462963</v>
   <v>       0.00462963</v>
   <v>       0.00925926</v>
   <v>       0.00925926</v>
   <v>       0.00925926</v>
   <v>       0.00925926</v>
   <v>       0.00925926</v>
   <v>       0.00462963</v>
   <v>       0.00462963</v>
   <v>       0.00925926</v>
   <v>       0.00925926</v>
   <v>       0.00925926</v>
   <v>       0.00925926</v>
   <v>       0.00925926</v>
   <v>       0.00462963</v>
   <v>       0.00231481</v>
   <v>       0.00462963</v>
   <v>       0.00462963</v>
   <v>       0.00462963</v>
   <v>       0.00462963</v>
   <v>       0.00462963</v>
   <v>       0.00231481</v>
   <v>       0.00231481</v>
   <v>       0.00462963</v>
   <v>       0.00462963</v>
   <v>       0.00462963</v>
   <v>       0.00462963</v>
   <v>       0.00462963</v>
   <v>       0.00231481</v>
   <v>       0.00462963</v>
   <v>       0.00925926</v>
   <v>       0.00925926</v>
   <v>       0.00925926</v>
   <v>       0.00925926</v>
   <v>       0.00925926</v>
   <v>       0.00462963</v>
   <v>       0.00462963</v>
   <v>       0.00925926</v>
   <v>       0.00925926</v>
   <v>       0.00925926</v>
   <v>       0.00925926</v>
   <v>       0.00925926</v>
   <v>       0.00462963</v>
   <v>       0.00231481</v>
   <v>       0.00462963</v>
   <v>       0.00462963</v>
   <v>       0.00462963</v>
   <v>       0.00462963</v>
   <v>       0.00462963</v>
   <v>       0.00231481</v>
   <v>       0.00231481</v>
   <v>       0.00462963</v>
   <v>       0.00462963</v>
   <v>       0.00462963</v>
   <v>       0.00462963</v>
   <v>       0.00462963</v>
   <v>       0.00231481</v>
   <v>       0.00462963</v>
   <v>       0.00925926</v>
   <v>       0.00925926</v>
   <v>       0.00925926</v>
   <v>       0.00925926</v>
   <v>       0.00925926</v>
   <v>       0.00462963</v>
   <v>       0.00231481</v>
   <v>       0.00462963</v>
   <v>       0.00462963</v>
   <v>       0.00462963</v>
   <v>       0.00462963</v>
   <v>       0.00462963</v>
   <v>       0.00231481</v>
   <v>       0.00231481</v>
   <v>       0.00462963</v>
   <v>       0.00462963</v>
   <v>       0.00462963</v>
   <v>       0.00462963</v>
   <v>       0.00462963</v>
   <v>       0.00231481</v>
   <v>       0.00231481</v>
   <v>       0.00462963</v>
   <v>       0.00462963</v>
   <v>       0.00462963</v>
   <v>       0.00462963</v>
   <v>       0.00462963</v>
   <v>       0.00231481</v>
   <v>       0.00057870</v>
   <v>       0.00115741</v>
   <v>       0.00115741</v>
   <v>       0.00115741</v>
   <v>       0.00115741</v>
   <v>       0.00115741</v>
   <v>       0.00057870</v>
  </varray>
 </kpoints>
 <parameters>
  <separator name="general" >
   <i type="string" name="SYSTEM">unknown system</i>
   <i type="logical" name="LCOMPAT"> F  </i>
  </separator>
  <separator name="electronic" >
   <i type="string" name="PREC">accura</i>
   <i name="ENMAX">    750.00000000</i>
   <i name="ENAUG">    356.67000000</i>
   <i name="EDIFF">      0.00000001</i>
   <i type="int" name="IALGO">    38</i>
   <i type="int" name="IWAVPR">    10</i>
   <i type="int" name="NBANDS">   211</i>
   <i name="NELECT">    352.00000000</i>
   <separator name="electronic smearing" >
    <i type="int" name="ISMEAR">     0</i>
    <i name="SIGMA">      0.01000000</i>
   </separator>
   <separator name="electronic projectors" >
    <i type="logical" name="LREAL"> F  </i>
    <v name="ROPT">      0.00000000</v>
    <i type="int" name="LMAXPAW">  -100</i>
    <i type="int" name="LMAXMIX">     2</i>
   </separator>
   <separator name="electronic startup" >
    <i type="int" name="ISTART">     0</i>
    <i type="int" name="ICHARG">     2</i>
    <i type="int" name="INIWAV">     1</i>
   </separator>
   <separator name="electronic spin" >
    <i type="int" name="ISPIN">     1</i>
    <i type="logical" name="LNONCOLLINEAR"> F  </i>
    <v name="MAGMOM">      1.00000000      1.00000000      1.00000000      1.00000000      1.00000000      1.00000000      1.00000000      1.00000000      1.00000000      1.00000000      1.00000000      1.00000000      1.00000000      1.00000000      1.00000000      1.00000000      1.00000000      1.00000000      1.00000000      1.00000000
      1.00000000      1.00000000      1.00000000      1.00000000      1.00000000      1.00000000      1.00000000      1.00000000      1.00000000      1.00000000      1.00000000      1.00000000</v>
    <i name="NUPDOWN">     -1.00000000</i>
    <i type="logical" name="LSORBIT"> F  </i>
    <v name="SAXIS">      0.00000000      0.00000000      1.00000000</v>
    <i type="logical" name="LSPIRAL"> F  </i>
    <v name="QSPIRAL">      0.00000000      0.00000000      0.00000000</v>
    <i type="logical" name="LZEROZ"> F  </i>
   </separator>
   <separator name="electronic exchange-correlation" >
    <i type="string" name="GGA">--</i>
    <i type="int" name="VOSKOWN">     0</i>
    <i type="logical" name="LASPH"> F  </i>
    <i type="logical" name="LMETAGGA"> F  </i>
    <i type="string" name="GGA2">--</i>
   </separator>
   <separator name="electronic convergence" >
    <i type="int" name="NELM">    60</i>
    <i type="int" name="NELMDL">     0</i>
    <i type="int" name="NELMIN">     2</i>
    <i name="ENINI">    750.00000000</i>
    <separator name="electronic convergence detail" >
     <i type="logical" name="LDIAG"> T  </i>
     <i name="WEIMIN">      0.00000000</i>
     <i name="EBREAK">      0.00000000</i>
     <i name="DEPER">      0.30000000</i>
     <i type="int" name="NRMM">     4</i>
     <i name="TIME">      0.10000000</i>
    </separator>
   </separator>
   <separator name="electronic mixer" >
    <i name="AMIX">      0.40000000</i>
    <i name="BMIX">      1.00000000</i>
    <i name="AMIN">      0.10000000</i>
    <i name="AMIX_MAG">      1.60000000</i>
    <i name="BMIX_MAG">      1.00000000</i>
    <separator name="electronic mixer details" >
     <i type="int" name="IMIX">     4</i>
     <i type="int" name="MAXMIX">   -45</i>
     <i name="WC">    100.00000000</i>
     <i type="int" name="INIMIX">     1</i>
     <i type="int" name="MIXPRE">     1</i>
     <i type="int" name="MREMOVE">     5</i>
    </separator>
   </separator>
   <separator name="electronic dipolcorrection" >
    <i type="int" name="IDIPOL">     0</i>
    <i type="logical" name="LDIPOL"> F  </i>
    <v name="DIPOL">   -100.00000000</v>
    <i name="EFIELD">      0.00000000</i>
   </separator>
  </separator>
  <separator name="grids" >
   <i type="int" name="NGX">    72</i>
   <i type="int" name="NGY">    72</i>
   <i type="int" name="NGZ">    72</i>
   <i type="int" name="NGXF">   144</i>
   <i type="int" name="NGYF">   144</i>
   <i type="int" name="NGZF">   144</i>
   <i type="logical" name="ADDGRID"> T  </i>
  </separator>
  <separator name="ionic" >
   <i type="int" name="NSW">     0</i>
   <i type="int" name="IBRION">    -1</i>
   <i type="int" name="ISIF">     2</i>
   <i name="PSTRESS">      0.00000000</i>
   <i name="EDIFFG">      0.00000010</i>
   <i type="int" name="NFREE">     0</i>
   <i name="POTIM">      0.50000000</i>
   <i name="SMASS">     -3.00000000</i>
  </separator>
  <separator name="ionic md" >
   <i name="TEBEG">      0.00010000</i>
   <i name="TEEND">      0.00010000</i>
   <i type="int" name="NBLOCK">     1</i>
   <i type="int" name="KBLOCK">     1</i>
   <i type="int" name="NPACO">   256</i>
   <i name="APACO">     16.00000000</i>
  </separator>
  <separator name="symmetry" >
   <i type="int" name="ISYM">     2</i>
   <i name="SYMPREC">      0.00001000</i>
  </separator>
  <separator name="dos" >
   <i type="logical" name="LORBIT"> F  </i>
   <v name="RWIGS">     -1.00000000</v>
   <i type="int" name="NEDOS">   301</i>
   <i name="EMIN">     10.00000000</i>
   <i name="EMAX">    -10.00000000</i>
  </separator>
  <separator name="writing" >
   <i type="int" name="NWRITE">     2</i>
   <i type="logical" name="LWAVE"> F  </i>
   <i type="logical" name="LCHARG"> F  </i>
   <i type="logical" name="LPARD"> F  </i>
   <i type="logical" name="LVTOT"> F  </i>
   <i type="logical" name="LELF"> F  </i>
   <i type="logical" name="LOPTICS"> F  </i>
   <i name="STM">      0.00000000</i>
  </separator>
  <separator name="performance" >
   <i type="int" name="NPAR">    16</i>
   <i type="int" name="NSIM">     4</i>
   <i type="int" name="NBLK">   256</i>
   <i type="logical" name="LPLANE"> T  </i>
   <i type="logical" name="LCRITICAL_MEM"> F  </i>
   <i type="logical" name="LSCALAPACK"> F  </i>
   <i type="logical" name="LSCALU"> F  </i>
   <i type="logical" name="LASYNC"> F  </i>
  </separator>
  <separator name="miscellaneous" >
   <i type="int" name="IDIOT">     3</i>
   <i type="logical" name="LMUSIC"> F  </i>
   <v name="POMASS">    196.96600000</v>
   <i type="logical" name="LCORR"> T  </i>
  </separator>
  <i type="logical" name="LREAL_COMPAT"> F  </i>
  <i type="logical" name="GGA_COMPAT"> T  </i>
  <i type="logical" name="LBERRY"> F  </i>
  <i type="int" name="ICORELEVEL">     0</i>
  <i type="logical" name="LDAU"> F  </i>
  <i type="int" name="I_CONSTRAINED_M">     0</i>
 </parameters>
 <atominfo>
  <atoms>      32</atoms>
  <types>       1</types>
  <array name="atoms" >
   <dimension dim="1">ion</dimension>
   <field type="string">element</field>
   <field type="int">atomtype</field>
   <set>
    <rc><c>Au</c><c>   1</c></rc>
    <rc><c>Au</c><c>   1</c></rc>
    <rc><c>Au</c><c>   1</c></rc>
    <rc><c>Au</c><c>   1</c></rc>
    <rc><c>Au</c><c>   1</c></rc>
    <rc><c>Au</c><c>   1</c></rc>
    <rc><c>Au</c><c>   1</c></rc>
    <rc><c>Au</c><c>   1</c></rc>
    <rc><c>Au</c><c>   1</c></rc>
    <rc><c>Au</c><c>   1</c></rc>
    <rc><c>Au</c><c>   1</c></rc>
    <rc><c>Au</c><c>   1</c></rc>
    <rc><c>Au</c><c>   1</c></rc>
    <rc><c>Au</c><c>   1</c></rc>
    <rc><c>Au</c><c>   1</c></rc>
    <rc><c>Au</c><c>   1</c></rc>
    <rc><c>Au</c><c>   1</c></rc>
    <rc><c>Au</c><c>   1</c></rc>
    <rc><c>Au</c><c>   1</c></rc>
    <rc><c>Au</c><c>   1</c></rc>
    <rc><c>Au</c><c>   1</c></rc>
    <rc><c>Au</c><c>   1</c></rc>
    <rc><c>Au</c><c>   1</c></rc>
    <rc><c>Au</c><c>   1</c></rc>
    <rc><c>Au</c><c>   1</c></rc>
    <rc><c>Au</c><c>   1</c></rc>
    <rc><c>Au</c><c>   1</c></rc>
    <rc><c>Au</c><c>   1</c></rc>
    <rc><c>Au</c><c>   1</c></rc>
    <rc><c>Au</c><c>   1</c></rc>
    <rc><c>Au</c><c>   1</c></rc>
    <rc><c>Au</c><c>   1</c></rc>
   </set>
  </array>
  <array name="atomtypes" >
   <dimension dim="1">type</dimension>
   <field type="int">atomspertype</field>
   <field type="string">element</field>
   <field>mass</field>
   <field>valence</field>
   <field type="string">pseudopotential</field>
   <set>
    <rc><c>  32</c><c>Au</c><c>    196.96600000</c><c>     11.00000000</c><c> PAW_PBE Au 06Sep2000                   </c></rc>
   </set>
  </array>
 </atominfo>
 <structure name="initialpos" >
  <crystal>
   <varray name="basis" >
    <v>       8.09533269      0.00000000      0.00000000</v>
    <v>       0.00000000      8.09533269      0.00000000</v>
    <v>       0.00000000      0.00000000      8.09533269</v>
   </varray>
   <i name="volume">    530.52286271</i>
   <varray name="rec_basis" >
    <v>       0.12352797      0.00000000      0.00000000</v>
    <v>       0.00000000      0.12352797      0.00000000</v>
    <v>       0.00000000      0.00000000      0.12352797</v>
   </varray>
  </crystal>
  <varray name="positions" >
   <v>       0.00123528      0.00000000      0.00000000</v>
   <v>       0.50000000      0.00000000      0.00000000</v>
   <v>       0.00000000      0.50000000      0.00000000</v>
   <v>       0.50000000      0.50000000      0.00000000</v>
   <v>       0.00000000      0.00000000      0.50000000</v>
   <v>       0.50000000      0.00000000      0.50000000</v>
   <v>       0.00000000      0.50000000      0.50000000</v>
   <v>       0.50000000      0.50000000      0.50000000</v>
   <v>       0.25000000      0.25000000      0.00000000</v>
   <v>       0.75000000      0.25000000      0.00000000</v>
   <v>       0.25000000      0.75000000      0.00000000</v>
   <v>       0.75000000      0.75000000      0.00000000</v>
   <v>       0.25000000      0.25000000      0.50000000</v>
   <v>       0.75000000      0.25000000      0.50000000</v>
   <v>       0.25000000      0.75000000      0.50000000</v>
   <v>       0.75000000      0.75000000      0.50000000</v>
   <v>       0.25000000      0.00000000      0.25000000</v>
   <v>       0.75000000      0.00000000      0.25000000</v>
   <v>       0.25000000      0.50000000      0.25000000</v>
   <v>       0.75000000      0.50000000      0.25000000</v>
   <v>       0.25000000      0.00000000      0.75000000</v>
   <v>       0.75000000      0.00000000      0.75000000</v>
   <v>       0.25000000      0.50000000      0.75000000</v>
   <v>       0.75000000      0.50000000      0.75000000</v>
   <v>       0.00000000      0.25000000      0.25000000</v>
   <v>       0.50000000      0.25000000      0.25000000</v>
   <v>       0.00000000      0.75000000      0.25000000</v>
   <v>       0.50000000      0.75000000      0.25000000</v>
   <v>       0.00000000      0.25000000      0.75000000</v>
   <v>       0.50000000      0.25000000      0.75000000</v>
   <v>       0.00000000      0.75000000      0.75000000</v>
   <v>       0.50000000      0.75000000      0.75000000</v>
  </varray>
 </structure>
 <calculation>
  <scstep>
   <time name="dav">  569.61  569.50</time>
   <time name="total">  570.14  570.03</time>
   <energy>
    <i name="alphaZ">   3614.86417341</i>
    <i name="ewald"> -31577.86426868</i>
    <i name="hartreedc">  -3852.10144103</i>
    <i name="XCdc">    495.02429449</i>
    <i name="pawpsdc">  23920.39735419</i>
    <i name="pawaedc"> -23172.13309131</i>
    <i name="eentropy">     -0.00072059</i>
    <i name="bandstr">   5774.54826858</i>
    <i name="atom">  29633.78979189</i>
    <i name="e_fr_energy">   4836.52436096</i>
    <i name="e_wo_entrp">   4836.52508155</i>
    <i name="e_0_energy">   4836.52472125</i>
   </energy>
  </scstep>
  <scstep>
   <time name="dav">  570.03  569.86</time>
   <time name="total">  570.10  569.94</time>
   <energy>
    <i name="e_fr_energy">    140.21752929</i>
    <i name="e_wo_entrp">    140.21802199</i>
    <i name="e_0_energy">    140.21777564</i>
   </energy>
  </scstep>
  <scstep>
   <time name="dav">  621.68  621.49</time>
   <time name="total">  621.75  621.56</time>
   <energy>
    <i name="e_fr_energy">   -104.60487274</i>
    <i name="e_wo_entrp">   -104.60422185</i>
    <i name="e_0_energy">   -104.60454729</i>
   </energy>
  </scstep>
  <scstep>
   <time name="dav">  618.49  618.30</time>
   <time name="total">  618.56  618.37</time>
   <energy>
    <i name="e_fr_energy">   -110.33708216</i>
    <i name="e_wo_entrp">   -110.33631465</i>
    <i name="e_0_energy">   -110.33669841</i>
   </energy>
  </scstep>
  <scstep>
   <time name="dav">  609.48  609.30</time>
   <time name="total">  632.99  632.80</time>
   <energy>
    <i name="e_fr_energy">   -110.40063613</i>
    <i name="e_wo_entrp">   -110.39986963</i>
    <i name="e_0_energy">   -110.40025288</i>
   </energy>
  </scstep>
  <scstep>
   <time name="dav">  620.03  619.84</time>
   <time name="total">  643.99  643.79</time>
   <energy>
    <i name="e_fr_energy">   -103.11577025</i>
    <i name="e_wo_entrp">   -103.11528458</i>
    <i name="e_0_energy">   -103.11552742</i>
   </energy>
  </scstep>
  <scstep>
   <time name="dav">  636.29  636.32</time>
   <time name="total">  659.82  659.86</time>
   <energy>
    <i name="e_fr_energy">   -102.44373421</i>
    <i name="e_wo_entrp">   -102.44288933</i>
    <i name="e_0_energy">   -102.44331177</i>
   </energy>
  </scstep>
  <scstep>
   <time name="dav">  603.95  604.03</time>
   <time name="total">  627.58  627.66</time>
   <energy>
    <i name="e_fr_energy">   -102.32766889</i>
    <i name="e_wo_entrp">   -102.32682030</i>
    <i name="e_0_energy">   -102.32724460</i>
   </energy>
  </scstep>
  <scstep>
   <time name="dav">  642.50  642.32</time>
   <time name="total">  666.82  666.64</time>
   <energy>
    <i name="e_fr_energy">   -102.32778211</i>
    <i name="e_wo_entrp">   -102.32688124</i>
    <i name="e_0_energy">   -102.32733167</i>
   </energy>
  </scstep>
  <scstep>
   <time name="dav">  609.22  609.04</time>
   <time name="total">  633.51  633.33</time>
   <energy>
    <i name="e_fr_energy">   -102.32782833</i>
    <i name="e_wo_entrp">   -102.32694293</i>
    <i name="e_0_energy">   -102.32738563</i>
   </energy>
  </scstep>
  <scstep>
   <time name="dav">  616.25  616.07</time>
   <time name="total">  639.73  639.55</time>
   <energy>
    <i name="e_fr_energy">   -102.32783727</i>
    <i name="e_wo_entrp">   -102.32695356</i>
    <i name="e_0_energy">   -102.32739542</i>
   </energy>
  </scstep>
  <scstep>
   <time name="dav">  659.23  659.06</time>
   <time name="total">  711.01  710.82</time>
   <energy>
    <i name="e_fr_energy">   -102.32784291</i>
    <i name="e_wo_entrp">   -102.32695922</i>
    <i name="e_0_energy">   -102.32740106</i>
   </energy>
  </scstep>
  <scstep>
   <time name="dav">  628.57  656.98</time>
   <time name="total"> 1019.53 1218.07</time>
   <energy>
    <i name="e_fr_energy">   -102.32784108</i>
    <i name="e_wo_entrp">   -102.32695751</i>
    <i name="e_0_energy">   -102.32739930</i>
   </energy>
  </scstep>
  <scstep>
   <time name="dav">  743.66 1013.37</time>
   <time name="total">  784.30 1064.68</time>
   <energy>
    <i name="e_fr_energy">   -102.32784019</i>
    <i name="e_wo_entrp">   -102.32695669</i>
    <i name="e_0_energy">   -102.32739844</i>
   </energy>
  </scstep>
  <scstep>
   <time name="dav">  561.55  895.43</time>
   <time name="total">  587.29  927.78</time>
   <energy>
    <i name="e_fr_energy">   -102.32784017</i>
    <i name="e_wo_entrp">   -102.32695668</i>
    <i name="e_0_energy">   -102.32739843</i>
   </energy>
  </scstep>
  <scstep>
   <time name="dav">  429.01  429.12</time>
   <time name="total">  456.71  458.69</time>
   <energy>
    <i name="e_fr_energy">   -102.32784019</i>
    <i name="e_wo_entrp">   -102.32695670</i>
    <i name="e_0_energy">   -102.32739845</i>
   </energy>
  </scstep>
  <scstep>
   <time name="dav">  425.91  425.80</time>
   <time name="total">  427.03  427.14</time>
   <energy>
    <i name="alphaZ">   3614.86417341</i>
    <i name="ewald"> -31577.86426868</i>
    <i name="hartreedc">  -3505.89080082</i>
    <i name="XCdc">    479.67732361</i>
    <i name="pawpsdc">  24352.17955502</i>
    <i name="pawaedc"> -23697.06581984</i>
    <i name="eentropy">     -0.00088350</i>
    <i name="bandstr">    597.98308871</i>
    <i name="atom">  29633.78979189</i>
    <i name="e_fr_energy">   -102.32784019</i>
    <i name="e_wo_entrp">   -102.32695670</i>
    <i name="e_0_energy">   -102.32739844</i>
   </energy>
  </scstep>
  <structure>
   <crystal>
    <varray name="basis" >
     <v>       8.09533269      0.00000000      0.00000000</v>
     <v>       0.00000000      8.09533269      0.00000000</v>
     <v>       0.00000000      0.00000000      8.09533269</v>
    </varray>
    <i name="volume">    530.52286271</i>
    <varray name="rec_basis" >
     <v>       0.12352797      0.00000000      0.00000000</v>
     <v>       0.00000000      0.12352797      0.00000000</v>
     <v>       0.00000000      0.00000000      0.12352797</v>
    </varray>
   </crystal>
   <varray name="positions" >
    <v>       0.00123528      0.00000000      0.00000000</v>
    <v>       0.50000000      0.00000000      0.00000000</v>
    <v>       0.00000000      0.50000000      0.00000000</v>
    <v>       0.50000000      0.50000000      0.00000000</v>
    <v>       0.00000000      0.00000000      0.50000000</v>
    <v>       0.50000000      0.00000000      0.50000000</v>
    <v>       0.00000000      0.50000000      0.50000000</v>
    <v>       0.50000000      0.50000000      0.50000000</v>
    <v>       0.25000000      0.25000000      0.00000000</v>
    <v>       0.75000000      0.25000000      0.00000000</v>
    <v>       0.25000000      0.75000000      0.00000000</v>
    <v>       0.75000000      0.75000000      0.00000000</v>
    <v>       0.25000000      0.25000000      0.50000000</v>
    <v>       0.75000000      0.25000000      0.50000000</v>
    <v>       0.25000000      0.75000000      0.50000000</v>
    <v>       0.75000000      0.75000000      0.50000000</v>
    <v>       0.25000000      0.00000000      0.25000000</v>
    <v>       0.75000000      0.00000000      0.25000000</v>
    <v>       0.25000000      0.50000000      0.25000000</v>
    <v>       0.75000000      0.50000000      0.25000000</v>
    <v>       0.25000000      0.00000000      0.75000000</v>
    <v>       0.75000000      0.00000000      0.75000000</v>
    <v>       0.25000000      0.50000000      0.75000000</v>
    <v>       0.75000000      0.50000000      0.75000000</v>
    <v>       0.00000000      0.25000000      0.25000000</v>
    <v>       0.50000000      0.25000000      0.25000000</v>
    <v>       0.00000000      0.75000000      0.25000000</v>
    <v>       0.50000000      0.75000000      0.25000000</v>
    <v>       0.00000000      0.25000000      0.75000000</v>
    <v>       0.50000000      0.25000000      0.75000000</v>
    <v>       0.00000000      0.75000000      0.75000000</v>
    <v>       0.50000000      0.75000000      0.75000000</v>
   </varray>
  </structure>
  <varray name="forces" >
   <v>      -0.09036497      0.00000000      0.00000000</v>
   <v>       0.00563179     -0.00000000     -0.00000000</v>
   <v>      -0.00089219     -0.00000000     -0.00000000</v>
   <v>      -0.00170131     -0.00000000     -0.00000000</v>
   <v>      -0.00089219     -0.00000000      0.00000000</v>
   <v>      -0.00170131      0.00000000      0.00000000</v>
   <v>       0.00034575     -0.00000000      0.00000000</v>
   <v>       0.00041035     -0.00000000     -0.00000000</v>
   <v>       0.01327296      0.01656517      0.00000000</v>
   <v>       0.01289368     -0.01602013     -0.00000000</v>
   <v>       0.01327296     -0.01656517      0.00000000</v>
   <v>       0.01289368      0.01602013      0.00000000</v>
   <v>      -0.00010308      0.00015926     -0.00000000</v>
   <v>      -0.00010505     -0.00015349      0.00000000</v>
   <v>      -0.00010308     -0.00015926     -0.00000000</v>
   <v>      -0.00010505      0.00015349      0.00000000</v>
   <v>       0.01327296     -0.00000000      0.01656517</v>
   <v>       0.01289368     -0.00000000     -0.01602013</v>
   <v>      -0.00010308     -0.00000000      0.00015926</v>
   <v>      -0.00010505      0.00000000     -0.00015349</v>
   <v>       0.01327296      0.00000000     -0.01656517</v>
   <v>       0.01289368      0.00000000      0.01602013</v>
   <v>      -0.00010308      0.00000000     -0.00015926</v>
   <v>      -0.00010505      0.00000000      0.00015349</v>
   <v>      -0.00448993     -0.00002441     -0.00002441</v>
   <v>       0.00082244      0.00000098      0.00000098</v>
   <v>      -0.00448993      0.00002441     -0.00002441</v>
   <v>       0.00082244     -0.00000098      0.00000098</v>
   <v>      -0.00448993     -0.00002441      0.00002441</v>
   <v>       0.00082244      0.00000098     -0.00000098</v>
   <v>      -0.00448993      0.00002441      0.00002441</v>
   <v>       0.00082244     -0.00000098     -0.00000098</v>
  </varray>
  <varray name="stress" >
   <v>     163.95265807     -0.00000000      0.00000000</v>
   <v>       0.00000000    163.95158520      0.00000000</v>
   <v>       0.00000000      0.00000000    163.95158520</v>
  </varray>
  <energy>
   <i name="e_fr_energy">   -102.32784019</i>
   <i name="e_wo_entrp">   -102.32739844</i>
   <i name="e_0_energy">     -0.00088350</i>
  </energy>
  <eigenvalues>
   <array>
    <dimension dim="1">band</dimension>
    <dimension dim="2">kpoint</dimension>
    <dimension dim="3">spin</dimension>
    <field>eigene</field>
    <field>occ</field>
    <set>
     <set comment="spin 1">
      <set comment="kpoint 1">
       <r>  -4.0331  1.0000</r>
       <r>  -1.5682  1.0000</r>
       <r>  -1.5645  1.0000</r>
       <r>  -1.5645  1.0000</r>
       <r>  -1.5645  1.0000</r>
       <r>  -1.5645  1.0000</r>
       <r>  -1.5609  1.0000</r>
       <r>  -1.4921  1.0000</r>
       <r>  -1.4921  1.0000</r>
       <r>  -1.4921  1.0000</r>
       <r>  -1.4920  1.0000</r>
       <r>  -1.2610  1.0000</r>
       <r>  -1.2610  1.0000</r>
       <r>  -1.2610  1.0000</r>
       <r>  -0.9388  1.0000</r>
       <r>  -0.9388  1.0000</r>
       <r>  -0.9388  1.0000</r>
       <r>  -0.2115  1.0000</r>
       <r>  -0.2100  1.0000</r>
       <r>  -0.2100  1.0000</r>
       <r>  -0.2079  1.0000</r>
       <r>  -0.2077  1.0000</r>
       <r>  -0.2077  1.0000</r>
       <r>  -0.2077  1.0000</r>
       <r>  -0.2077  1.0000</r>
       <r>  -0.2074  1.0000</r>
       <r>  -0.2054  1.0000</r>
       <r>  -0.2054  1.0000</r>
       <r>  -0.2039  1.0000</r>
       <r>  -0.1211  1.0000</r>
       <r>  -0.1184  1.0000</r>
       <r>  -0.1184  1.0000</r>
       <r>  -0.1184  1.0000</r>
       <r>  -0.1184  1.0000</r>
       <r>  -0.1158  1.0000</r>
       <r>   0.0402  1.0000</r>
       <r>   0.0429  1.0000</r>
       <r>   0.0429  1.0000</r>
       <r>   0.0429  1.0000</r>
       <r>   0.0429  1.0000</r>
       <r>   0.0455  1.0000</r>
       <r>   0.6543  1.0000</r>
       <r>   0.6577  1.0000</r>
       <r>   0.6577  1.0000</r>
       <r>   0.6592  1.0000</r>
       <r>   0.6592  1.0000</r>
       <r>   0.6592  1.0000</r>
       <r>   0.6592  1.0000</r>
       <r>   0.6592  1.0000</r>
       <r>   0.6593  1.0000</r>
       <r>   0.6606  1.0000</r>
       <r>   0.6606  1.0000</r>
       <r>   0.6637  1.0000</r>
       <r>   0.7281  1.0000</r>
       <r>   0.7281  1.0000</r>
       <r>   0.7308  1.0000</r>
       <r>   0.7308  1.0000</r>
       <r>   0.7308  1.0000</r>
       <r>   0.7309  1.0000</r>
       <r>   0.7309  1.0000</r>
       <r>   0.7310  1.0000</r>
       <r>   0.7310  1.0000</r>
       <r>   0.7312  1.0000</r>
       <r>   0.7338  1.0000</r>
       <r>   0.7338  1.0000</r>
       <r>   1.0090  1.0000</r>
       <r>   1.0135  1.0000</r>
       <r>   1.0135  1.0000</r>
       <r>   1.0135  1.0000</r>
       <r>   1.0139  1.0000</r>
       <r>   1.0139  1.0000</r>
       <r>   1.0139  1.0000</r>
       <r>   1.0139  1.0000</r>
       <r>   1.0141  1.0000</r>
       <r>   1.0142  1.0000</r>
       <r>   1.0142  1.0000</r>
       <r>   1.0187  1.0000</r>
       <r>   1.1794  1.0000</r>
       <r>   1.1795  1.0000</r>
       <r>   1.1795  1.0000</r>
       <r>   1.1795  1.0000</r>
       <r>   1.1795  1.0000</r>
       <r>   1.1795  1.0000</r>
       <r>   1.1795  1.0000</r>
       <r>   1.1796  1.0000</r>
       <r>   1.2197  1.0000</r>
       <r>   1.2197  1.0000</r>
       <r>   1.2198  1.0000</r>
       <r>   1.9527  1.0000</r>
       <r>   1.9553  1.0000</r>
       <r>   1.9553  1.0000</r>
       <r>   1.9553  1.0000</r>
       <r>   1.9554  1.0000</r>
       <r>   1.9580  1.0000</r>
       <r>   2.1792  1.0000</r>
       <r>   2.1801  1.0000</r>
       <r>   2.1816  1.0000</r>
       <r>   2.1816  1.0000</r>
       <r>   2.1824  1.0000</r>
       <r>   2.1824  1.0000</r>
       <r>   2.1824  1.0000</r>
       <r>   2.1824  1.0000</r>
       <r>   2.1832  1.0000</r>
       <r>   2.1832  1.0000</r>
       <r>   2.1848  1.0000</r>
       <r>   2.1855  1.0000</r>
       <r>   2.5099  1.0000</r>
       <r>   2.5099  1.0000</r>
       <r>   2.5132  1.0000</r>
       <r>   2.5132  1.0000</r>
       <r>   2.5135  1.0000</r>
       <r>   2.5135  1.0000</r>
       <r>   2.5135  1.0000</r>
       <r>   2.5135  1.0000</r>
       <r>   2.5137  1.0000</r>
       <r>   2.5137  1.0000</r>
       <r>   2.5169  1.0000</r>
       <r>   2.5169  1.0000</r>
       <r>   2.6582  1.0000</r>
       <r>   2.6605  1.0000</r>
       <r>   2.6605  1.0000</r>
       <r>   2.6605  1.0000</r>
       <r>   2.6605  1.0000</r>
       <r>   2.6627  1.0000</r>
       <r>   2.7993  1.0000</r>
       <r>   2.7993  1.0000</r>
       <r>   2.8025  1.0000</r>
       <r>   2.8027  1.0000</r>
       <r>   2.8030  1.0000</r>
       <r>   2.8031  1.0000</r>
       <r>   2.8031  1.0000</r>
       <r>   2.8031  1.0000</r>
       <r>   2.8032  1.0000</r>
       <r>   2.8036  1.0000</r>
       <r>   2.8070  1.0000</r>
       <r>   2.8070  1.0000</r>
       <r>   2.8150  1.0000</r>
       <r>   2.8154  1.0000</r>
       <r>   3.3948  1.0000</r>
       <r>   3.3964  1.0000</r>
       <r>   3.3964  1.0000</r>
       <r>   3.3964  1.0000</r>
       <r>   3.3964  1.0000</r>
       <r>   3.3981  1.0000</r>
       <r>   4.0305  1.0000</r>
       <r>   4.0306  1.0000</r>
       <r>   4.0306  1.0000</r>
       <r>   4.0751  1.0000</r>
       <r>   4.0752  1.0000</r>
       <r>   4.0752  1.0000</r>
       <r>   4.0752  1.0000</r>
       <r>   4.0752  1.0000</r>
       <r>   4.0752  1.0000</r>
       <r>   4.0752  1.0000</r>
       <r>   4.0752  1.0000</r>
       <r>   4.4134  1.0000</r>
       <r>   4.4137  1.0000</r>
       <r>   4.4138  1.0000</r>
       <r>   4.4138  1.0000</r>
       <r>   4.4138  1.0000</r>
       <r>   4.4138  1.0000</r>
       <r>   4.4158  1.0000</r>
       <r>   4.4159  1.0000</r>
       <r>   4.4159  1.0000</r>
       <r>   4.4159  1.0000</r>
       <r>   4.4160  1.0000</r>
       <r>   4.4163  1.0000</r>
       <r>   5.0178  1.0000</r>
       <r>   5.0178  1.0000</r>
       <r>   5.0178  1.0000</r>
       <r>   5.0178  1.0000</r>
       <r>   5.8365  1.0000</r>
       <r>   5.8369  1.0000</r>
       <r>   5.8369  1.0000</r>
       <r>   5.8377  1.0000</r>
       <r>   5.8383  1.0000</r>
       <r>   5.8383  1.0000</r>
       <r>   5.8383  1.0000</r>
       <r>   5.8383  1.0000</r>
       <r>   5.8389  1.0000</r>
       <r>   5.8397  1.0000</r>
       <r>   5.8397  1.0000</r>
       <r>   5.8401  1.0000</r>
       <r>   7.0717  0.0000</r>
       <r>   7.0717  0.0000</r>
       <r>   7.0718  0.0000</r>
       <r>   9.3594  0.0000</r>
       <r>   9.3594  0.0000</r>
       <r>   9.3594  0.0000</r>
       <r>   9.3595  0.0000</r>
       <r>  11.1094  0.0000</r>
       <r>  11.1097  0.0000</r>
       <r>  11.1097  0.0000</r>
       <r>  11.1098  0.0000</r>
       <r>  11.1098  0.0000</r>
       <r>  11.1101  0.0000</r>
       <r>  12.1672  0.0000</r>
       <r>  12.1673  0.0000</r>
       <r>  12.1673  0.0000</r>
       <r>  12.5382  0.0000</r>
       <r>  12.5382  0.0000</r>
       <r>  12.5416  0.0000</r>
       <r>  12.5416  0.0000</r>
       <r>  12.5422  0.0000</r>
       <r>  12.5422  0.0000</r>
       <r>  12.5423  0.0000</r>
       <r>  12.5424  0.0000</r>
       <r>  12.5429  0.0000</r>
       <r>  12.5429  0.0000</r>
       <r>  12.5463  0.0000</r>
       <r>  12.5463  0.0000</r>
       <r>  14.9187  0.0000</r>
       <r>  14.9192  0.0000</r>
       <r>  14.9204  0.0000</r>
       <r>  14.9204  0.0000</r>
       <r>  14.9218  0.0000</r>
       <r>  14.9218  0.0000</r>
       <r>  14.9219  0.0000</r>
       <r>  14.9219  0.0000</r>
       <r>  14.9233  0.0000</r>
       <r>  14.9233  0.0000</r>
       <r>  14.9245  0.0000</r>
       <r>  14.9249  0.0000</r>
       <r>  15.7188  0.0000</r>
      </set>
      <set comment="kpoint 2">
       <r>  -4.0122  1.0000</r>
       <r>  -1.8501  1.0000</r>
       <r>  -1.5493  1.0000</r>
       <r>  -1.5493  1.0000</r>
       <r>  -1.5493  1.0000</r>
       <r>  -1.5493  1.0000</r>
       <r>  -1.4801  1.0000</r>
       <r>  -1.4801  1.0000</r>
       <r>  -1.4801  1.0000</r>
       <r>  -1.4801  1.0000</r>
       <r>  -1.3249  1.0000</r>
       <r>  -1.2533  1.0000</r>
       <r>  -1.2468  1.0000</r>
       <r>  -1.2468  1.0000</r>
       <r>  -0.9310  1.0000</r>
       <r>  -0.9270  1.0000</r>
       <r>  -0.9270  1.0000</r>
       <r>  -0.3185  1.0000</r>
       <r>  -0.3184  1.0000</r>
       <r>  -0.3184  1.0000</r>
       <r>  -0.3184  1.0000</r>
       <r>  -0.2705  1.0000</r>
       <r>  -0.2705  1.0000</r>
       <r>  -0.2704  1.0000</r>
       <r>  -0.2704  1.0000</r>
       <r>  -0.1480  1.0000</r>
       <r>  -0.1478  1.0000</r>
       <r>  -0.1120  1.0000</r>
       <r>  -0.1120  1.0000</r>
       <r>  -0.1120  1.0000</r>
       <r>  -0.1120  1.0000</r>
       <r>  -0.1079  1.0000</r>
       <r>  -0.1079  1.0000</r>
       <r>  -0.1079  1.0000</r>
       <r>  -0.1077  1.0000</r>
       <r>  -0.0946  1.0000</r>
       <r>   0.0495  1.0000</r>
       <r>   0.0495  1.0000</r>
       <r>   0.0495  1.0000</r>
       <r>   0.0495  1.0000</r>
       <r>   0.1835  1.0000</r>
       <r>   0.4688  1.0000</r>
       <r>   0.4688  1.0000</r>
       <r>   0.6069  1.0000</r>
       <r>   0.6071  1.0000</r>
       <r>   0.6071  1.0000</r>
       <r>   0.6071  1.0000</r>
       <r>   0.6994  1.0000</r>
       <r>   0.7001  1.0000</r>
       <r>   0.7001  1.0000</r>
       <r>   0.7001  1.0000</r>
       <r>   0.7132  1.0000</r>
       <r>   0.7133  1.0000</r>
       <r>   0.7133  1.0000</r>
       <r>   0.7136  1.0000</r>
       <r>   0.7187  1.0000</r>
       <r>   0.7188  1.0000</r>
       <r>   0.7188  1.0000</r>
       <r>   0.7189  1.0000</r>
       <r>   0.7321  1.0000</r>
       <r>   0.7321  1.0000</r>
       <r>   0.7321  1.0000</r>
       <r>   0.7327  1.0000</r>
       <r>   0.9407  1.0000</r>
       <r>   0.9408  1.0000</r>
       <r>   0.9408  1.0000</r>
       <r>   0.9408  1.0000</r>
       <r>   1.0133  1.0000</r>
       <r>   1.0133  1.0000</r>
       <r>   1.0453  1.0000</r>
       <r>   1.0462  1.0000</r>
       <r>   1.0462  1.0000</r>
       <r>   1.0463  1.0000</r>
       <r>   1.0542  1.0000</r>
       <r>   1.0542  1.0000</r>
       <r>   1.0542  1.0000</r>
       <r>   1.0553  1.0000</r>
       <r>   1.1742  1.0000</r>
       <r>   1.1742  1.0000</r>
       <r>   1.1742  1.0000</r>
       <r>   1.1743  1.0000</r>
       <r>   1.1893  1.0000</r>
       <r>   1.1893  1.0000</r>
       <r>   1.1893  1.0000</r>
       <r>   1.1893  1.0000</r>
       <r>   1.2086  1.0000</r>
       <r>   1.2293  1.0000</r>
       <r>   1.2293  1.0000</r>
       <r>   1.8995  1.0000</r>
       <r>   1.8996  1.0000</r>
       <r>   1.8996  1.0000</r>
       <r>   1.8996  1.0000</r>
       <r>   1.9441  1.0000</r>
       <r>   2.0520  1.0000</r>
       <r>   2.1351  1.0000</r>
       <r>   2.1353  1.0000</r>
       <r>   2.1353  1.0000</r>
       <r>   2.1353  1.0000</r>
       <r>   2.1817  1.0000</r>
       <r>   2.1817  1.0000</r>
       <r>   2.1817  1.0000</r>
       <r>   2.1817  1.0000</r>
       <r>   2.2368  1.0000</r>
       <r>   2.2368  1.0000</r>
       <r>   2.2369  1.0000</r>
       <r>   2.2369  1.0000</r>
       <r>   2.3209  1.0000</r>
       <r>   2.3209  1.0000</r>
       <r>   2.5128  1.0000</r>
       <r>   2.5128  1.0000</r>
       <r>   2.5129  1.0000</r>
       <r>   2.5129  1.0000</r>
       <r>   2.5592  1.0000</r>
       <r>   2.5592  1.0000</r>
       <r>   2.5592  1.0000</r>
       <r>   2.5592  1.0000</r>
       <r>   2.6655  1.0000</r>
       <r>   2.6655  1.0000</r>
       <r>   2.6655  1.0000</r>
       <r>   2.6656  1.0000</r>
       <r>   2.6945  1.0000</r>
       <r>   2.6947  1.0000</r>
       <r>   2.7085  1.0000</r>
       <r>   2.7085  1.0000</r>
       <r>   2.7091  1.0000</r>
       <r>   2.7091  1.0000</r>
       <r>   2.7159  1.0000</r>
       <r>   2.7159  1.0000</r>
       <r>   2.8029  1.0000</r>
       <r>   2.8196  1.0000</r>
       <r>   2.8546  1.0000</r>
       <r>   2.8547  1.0000</r>
       <r>   2.8547  1.0000</r>
       <r>   2.8548  1.0000</r>
       <r>   2.9196  1.0000</r>
       <r>   2.9196  1.0000</r>
       <r>   2.9197  1.0000</r>
       <r>   2.9197  1.0000</r>
       <r>   3.3177  1.0000</r>
       <r>   3.4107  1.0000</r>
       <r>   3.4107  1.0000</r>
       <r>   3.4107  1.0000</r>
       <r>   3.4107  1.0000</r>
       <r>   3.4760  1.0000</r>
       <r>   3.9634  1.0000</r>
       <r>   3.9634  1.0000</r>
       <r>   3.9634  1.0000</r>
       <r>   3.9634  1.0000</r>
       <r>   4.0133  1.0000</r>
       <r>   4.0133  1.0000</r>
       <r>   4.0249  1.0000</r>
       <r>   4.0606  1.0000</r>
       <r>   4.0606  1.0000</r>
       <r>   4.0606  1.0000</r>
       <r>   4.0606  1.0000</r>
       <r>   4.3260  1.0000</r>
       <r>   4.3260  1.0000</r>
       <r>   4.3926  1.0000</r>
       <r>   4.3926  1.0000</r>
       <r>   4.3929  1.0000</r>
       <r>   4.3929  1.0000</r>
       <r>   4.3929  1.0000</r>
       <r>   4.3929  1.0000</r>
       <r>   4.4134  1.0000</r>
       <r>   4.4138  1.0000</r>
       <r>   4.4158  1.0000</r>
       <r>   4.4163  1.0000</r>
       <r>   5.0935  1.0000</r>
       <r>   5.0935  1.0000</r>
       <r>   5.0935  1.0000</r>
       <r>   5.0935  1.0000</r>
       <r>   5.5345  1.0000</r>
       <r>   5.5345  1.0000</r>
       <r>   5.5345  1.0000</r>
       <r>   5.5345  1.0000</r>
       <r>   5.8359  1.0000</r>
       <r>   5.8359  1.0000</r>
       <r>   5.8359  1.0000</r>
       <r>   5.8359  1.0000</r>
       <r>   6.1604  0.1735</r>
       <r>   6.1604  0.1735</r>
       <r>   6.1604  0.1734</r>
       <r>   6.1605  0.1731</r>
       <r>   6.9156  0.0000</r>
       <r>   7.1735  0.0000</r>
       <r>   7.1735  0.0000</r>
       <r>   9.4209  0.0000</r>
       <r>   9.4209  0.0000</r>
       <r>   9.4209  0.0000</r>
       <r>   9.4209  0.0000</r>
       <r>  10.9162  0.0000</r>
       <r>  10.9162  0.0000</r>
       <r>  10.9162  0.0000</r>
       <r>  10.9162  0.0000</r>
       <r>  11.1243  0.0000</r>
       <r>  11.1244  0.0000</r>
       <r>  12.0065  0.0000</r>
       <r>  12.0065  0.0000</r>
       <r>  12.1456  0.0000</r>
       <r>  12.1456  0.0000</r>
       <r>  12.3585  0.0000</r>
       <r>  12.5826  0.0000</r>
       <r>  12.5826  0.0000</r>
       <r>  12.5826  0.0000</r>
       <r>  12.5826  0.0000</r>
       <r>  12.6461  0.0000</r>
       <r>  12.6461  0.0000</r>
       <r>  12.6461  0.0000</r>
       <r>  12.6462  0.0000</r>
       <r>  13.0648  0.0000</r>
       <r>  13.0648  0.0000</r>
       <r>  14.5914  0.0000</r>
       <r>  14.5917  0.0000</r>
       <r>  14.5917  0.0000</r>
       <r>  14.5917  0.0000</r>
       <r>  14.6035  0.0000</r>
       <r>  14.6036  0.0000</r>
       <r>  14.6036  0.0000</r>
       <r>  14.6038  0.0000</r>
       <r>  15.2927  0.0000</r>
       <r>  15.2927  0.0000</r>
       <r>  15.2927  0.0000</r>
       <r>  15.2927  0.0000</r>
       <r>  15.7262  0.0000</r>
      </set>
      <set comment="kpoint 3">
       <r>  -3.9496  1.0000</r>
       <r>  -2.1586  1.0000</r>
       <r>  -1.5042  1.0000</r>
       <r>  -1.5041  1.0000</r>
       <r>  -1.5041  1.0000</r>
       <r>  -1.5041  1.0000</r>
       <r>  -1.4442  1.0000</r>
       <r>  -1.4442  1.0000</r>
       <r>  -1.4442  1.0000</r>
       <r>  -1.4442  1.0000</r>
       <r>  -1.2309  1.0000</r>
       <r>  -1.2045  1.0000</r>
       <r>  -1.2045  1.0000</r>
       <r>  -1.1507  1.0000</r>
       <r>  -0.9078  1.0000</r>
       <r>  -0.8916  1.0000</r>
       <r>  -0.8916  1.0000</r>
       <r>  -0.4469  1.0000</r>
       <r>  -0.4469  1.0000</r>
       <r>  -0.4469  1.0000</r>
       <r>  -0.4469  1.0000</r>
       <r>  -0.4163  1.0000</r>
       <r>  -0.4163  1.0000</r>
       <r>  -0.4162  1.0000</r>
       <r>  -0.4162  1.0000</r>
       <r>  -0.2300  1.0000</r>
       <r>  -0.2300  1.0000</r>
       <r>  -0.2266  1.0000</r>
       <r>  -0.0770  1.0000</r>
       <r>  -0.0769  1.0000</r>
       <r>  -0.0769  1.0000</r>
       <r>  -0.0769  1.0000</r>
       <r>  -0.0271  1.0000</r>
       <r>  -0.0271  1.0000</r>
       <r>  -0.0271  1.0000</r>
       <r>  -0.0270  1.0000</r>
       <r>   0.0692  1.0000</r>
       <r>   0.0692  1.0000</r>
       <r>   0.0693  1.0000</r>
       <r>   0.0693  1.0000</r>
       <r>   0.2279  1.0000</r>
       <r>   0.2279  1.0000</r>
       <r>   0.3251  1.0000</r>
       <r>   0.5453  1.0000</r>
       <r>   0.5454  1.0000</r>
       <r>   0.5454  1.0000</r>
       <r>   0.5454  1.0000</r>
       <r>   0.6840  1.0000</r>
       <r>   0.6840  1.0000</r>
       <r>   0.6840  1.0000</r>
       <r>   0.6841  1.0000</r>
       <r>   0.7282  1.0000</r>
       <r>   0.7294  1.0000</r>
       <r>   0.7294  1.0000</r>
       <r>   0.7295  1.0000</r>
       <r>   0.7355  1.0000</r>
       <r>   0.7356  1.0000</r>
       <r>   0.7356  1.0000</r>
       <r>   0.7368  1.0000</r>
       <r>   0.8100  1.0000</r>
       <r>   0.8101  1.0000</r>
       <r>   0.8101  1.0000</r>
       <r>   0.8102  1.0000</r>
       <r>   0.8395  1.0000</r>
       <r>   0.8395  1.0000</r>
       <r>   0.8395  1.0000</r>
       <r>   0.8396  1.0000</r>
       <r>   1.0730  1.0000</r>
       <r>   1.0730  1.0000</r>
       <r>   1.0731  1.0000</r>
       <r>   1.0731  1.0000</r>
       <r>   1.1584  1.0000</r>
       <r>   1.1584  1.0000</r>
       <r>   1.1584  1.0000</r>
       <r>   1.1585  1.0000</r>
       <r>   1.1661  1.0000</r>
       <r>   1.1662  1.0000</r>
       <r>   1.1662  1.0000</r>
       <r>   1.1662  1.0000</r>
       <r>   1.1754  1.0000</r>
       <r>   1.2186  1.0000</r>
       <r>   1.2186  1.0000</r>
       <r>   1.2186  1.0000</r>
       <r>   1.2187  1.0000</r>
       <r>   1.2581  1.0000</r>
       <r>   1.2581  1.0000</r>
       <r>   1.3152  1.0000</r>
       <r>   1.3152  1.0000</r>
       <r>   1.7749  1.0000</r>
       <r>   1.7750  1.0000</r>
       <r>   1.7750  1.0000</r>
       <r>   1.7750  1.0000</r>
       <r>   1.9934  1.0000</r>
       <r>   2.0255  1.0000</r>
       <r>   2.0256  1.0000</r>
       <r>   2.0256  1.0000</r>
       <r>   2.0256  1.0000</r>
       <r>   2.1399  1.0000</r>
       <r>   2.1399  1.0000</r>
       <r>   2.2319  1.0000</r>
       <r>   2.2324  1.0000</r>
       <r>   2.2324  1.0000</r>
       <r>   2.2324  1.0000</r>
       <r>   2.2556  1.0000</r>
       <r>   2.3290  1.0000</r>
       <r>   2.3290  1.0000</r>
       <r>   2.3290  1.0000</r>
       <r>   2.3291  1.0000</r>
       <r>   2.5113  1.0000</r>
       <r>   2.5113  1.0000</r>
       <r>   2.5113  1.0000</r>
       <r>   2.5113  1.0000</r>
       <r>   2.6367  1.0000</r>
       <r>   2.6367  1.0000</r>
       <r>   2.6370  1.0000</r>
       <r>   2.6370  1.0000</r>
       <r>   2.6461  1.0000</r>
       <r>   2.6463  1.0000</r>
       <r>   2.6464  1.0000</r>
       <r>   2.6464  1.0000</r>
       <r>   2.6788  1.0000</r>
       <r>   2.6789  1.0000</r>
       <r>   2.6789  1.0000</r>
       <r>   2.6789  1.0000</r>
       <r>   2.7672  1.0000</r>
       <r>   2.7903  1.0000</r>
       <r>   2.7903  1.0000</r>
       <r>   2.8340  1.0000</r>
       <r>   2.9237  1.0000</r>
       <r>   2.9237  1.0000</r>
       <r>   2.9774  1.0000</r>
       <r>   2.9774  1.0000</r>
       <r>   2.9774  1.0000</r>
       <r>   2.9774  1.0000</r>
       <r>   3.0576  1.0000</r>
       <r>   3.0576  1.0000</r>
       <r>   3.0577  1.0000</r>
       <r>   3.0577  1.0000</r>
       <r>   3.2413  1.0000</r>
       <r>   3.4612  1.0000</r>
       <r>   3.4612  1.0000</r>
       <r>   3.4612  1.0000</r>
       <r>   3.4612  1.0000</r>
       <r>   3.5551  1.0000</r>
       <r>   3.7021  1.0000</r>
       <r>   3.7021  1.0000</r>
       <r>   3.7021  1.0000</r>
       <r>   3.7021  1.0000</r>
       <r>   3.9620  1.0000</r>
       <r>   3.9620  1.0000</r>
       <r>   4.0080  1.0000</r>
       <r>   4.0174  1.0000</r>
       <r>   4.0174  1.0000</r>
       <r>   4.0174  1.0000</r>
       <r>   4.0175  1.0000</r>
       <r>   4.0953  1.0000</r>
       <r>   4.0953  1.0000</r>
       <r>   4.3256  1.0000</r>
       <r>   4.3256  1.0000</r>
       <r>   4.3257  1.0000</r>
       <r>   4.3257  1.0000</r>
       <r>   4.3302  1.0000</r>
       <r>   4.3302  1.0000</r>
       <r>   4.4135  1.0000</r>
       <r>   4.4139  1.0000</r>
       <r>   4.4157  1.0000</r>
       <r>   4.4162  1.0000</r>
       <r>   5.2433  1.0000</r>
       <r>   5.2433  1.0000</r>
       <r>   5.2435  1.0000</r>
       <r>   5.2436  1.0000</r>
       <r>   5.2492  1.0000</r>
       <r>   5.2492  1.0000</r>
       <r>   5.2495  1.0000</r>
       <r>   5.2495  1.0000</r>
       <r>   5.8282  1.0000</r>
       <r>   5.8282  1.0000</r>
       <r>   5.8282  1.0000</r>
       <r>   5.8282  1.0000</r>
       <r>   6.5046  0.0000</r>
       <r>   6.5077  0.0000</r>
       <r>   6.5077  0.0000</r>
       <r>   6.5077  0.0000</r>
       <r>   6.5078  0.0000</r>
       <r>   7.4460  0.0000</r>
       <r>   7.4460  0.0000</r>
       <r>   9.6028  0.0000</r>
       <r>   9.6028  0.0000</r>
       <r>   9.6028  0.0000</r>
       <r>   9.6028  0.0000</r>
       <r>  10.4700  0.0000</r>
       <r>  10.4700  0.0000</r>
       <r>  10.4700  0.0000</r>
       <r>  10.4701  0.0000</r>
       <r>  11.1678  0.0000</r>
       <r>  11.1678  0.0000</r>
       <r>  11.4622  0.0000</r>
       <r>  11.4622  0.0000</r>
       <r>  12.0826  0.0000</r>
       <r>  12.0826  0.0000</r>
       <r>  12.7019  0.0000</r>
       <r>  12.7019  0.0000</r>
       <r>  12.7019  0.0000</r>
       <r>  12.7019  0.0000</r>
       <r>  12.8423  0.0000</r>
       <r>  12.8425  0.0000</r>
       <r>  12.8425  0.0000</r>
       <r>  12.8425  0.0000</r>
       <r>  12.8750  0.0000</r>
       <r>  13.5693  0.0000</r>
       <r>  13.5693  0.0000</r>
       <r>  13.9754  0.0000</r>
       <r>  13.9754  0.0000</r>
       <r>  13.9755  0.0000</r>
       <r>  13.9755  0.0000</r>
       <r>  14.3010  0.0000</r>
       <r>  14.3010  0.0000</r>
       <r>  14.3010  0.0000</r>
       <r>  14.3010  0.0000</r>
       <r>  15.6065  0.0000</r>
       <r>  15.6071  0.0000</r>
       <r>  15.6123  0.0000</r>
       <r>  15.6178  0.0000</r>
       <r>  15.7059  0.0000</r>
      </set>
      <set comment="kpoint 4">
       <r>  -3.8460  1.0000</r>
       <r>  -2.4704  1.0000</r>
       <r>  -1.4303  1.0000</r>
       <r>  -1.4303  1.0000</r>
       <r>  -1.4303  1.0000</r>
       <r>  -1.4302  1.0000</r>
       <r>  -1.3846  1.0000</r>
       <r>  -1.3846  1.0000</r>
       <r>  -1.3846  1.0000</r>
       <r>  -1.3846  1.0000</r>
       <r>  -1.1954  1.0000</r>
       <r>  -1.1352  1.0000</r>
       <r>  -1.1351  1.0000</r>
       <r>  -1.0487  1.0000</r>
       <r>  -0.8693  1.0000</r>
       <r>  -0.8326  1.0000</r>
       <r>  -0.8326  1.0000</r>
       <r>  -0.5926  1.0000</r>
       <r>  -0.5926  1.0000</r>
       <r>  -0.5922  1.0000</r>
       <r>  -0.5921  1.0000</r>
       <r>  -0.5893  1.0000</r>
       <r>  -0.5892  1.0000</r>
       <r>  -0.5888  1.0000</r>
       <r>  -0.5888  1.0000</r>
       <r>  -0.3515  1.0000</r>
       <r>  -0.3507  1.0000</r>
       <r>  -0.3507  1.0000</r>
       <r>  -0.0272  1.0000</r>
       <r>  -0.0272  1.0000</r>
       <r>  -0.0272  1.0000</r>
       <r>  -0.0271  1.0000</r>
       <r>   0.0086  1.0000</r>
       <r>   0.0086  1.0000</r>
       <r>   0.0499  1.0000</r>
       <r>   0.0499  1.0000</r>
       <r>   0.0499  1.0000</r>
       <r>   0.0500  1.0000</r>
       <r>   0.1017  1.0000</r>
       <r>   0.1017  1.0000</r>
       <r>   0.1017  1.0000</r>
       <r>   0.1017  1.0000</r>
       <r>   0.4651  1.0000</r>
       <r>   0.4767  1.0000</r>
       <r>   0.4767  1.0000</r>
       <r>   0.4767  1.0000</r>
       <r>   0.4767  1.0000</r>
       <r>   0.6321  1.0000</r>
       <r>   0.6321  1.0000</r>
       <r>   0.6321  1.0000</r>
       <r>   0.6322  1.0000</r>
       <r>   0.7234  1.0000</r>
       <r>   0.7234  1.0000</r>
       <r>   0.7234  1.0000</r>
       <r>   0.7234  1.0000</r>
       <r>   0.7396  1.0000</r>
       <r>   0.7407  1.0000</r>
       <r>   0.7407  1.0000</r>
       <r>   0.7407  1.0000</r>
       <r>   0.7482  1.0000</r>
       <r>   0.7483  1.0000</r>
       <r>   0.7483  1.0000</r>
       <r>   0.7494  1.0000</r>
       <r>   0.8798  1.0000</r>
       <r>   0.8798  1.0000</r>
       <r>   0.8798  1.0000</r>
       <r>   0.8799  1.0000</r>
       <r>   1.0908  1.0000</r>
       <r>   1.0909  1.0000</r>
       <r>   1.0909  1.0000</r>
       <r>   1.0909  1.0000</r>
       <r>   1.1210  1.0000</r>
       <r>   1.1334  1.0000</r>
       <r>   1.1334  1.0000</r>
       <r>   1.1334  1.0000</r>
       <r>   1.1335  1.0000</r>
       <r>   1.2671  1.0000</r>
       <r>   1.2671  1.0000</r>
       <r>   1.2671  1.0000</r>
       <r>   1.2672  1.0000</r>
       <r>   1.3059  1.0000</r>
       <r>   1.3059  1.0000</r>
       <r>   1.3859  1.0000</r>
       <r>   1.3859  1.0000</r>
       <r>   1.3859  1.0000</r>
       <r>   1.3859  1.0000</r>
       <r>   1.6314  1.0000</r>
       <r>   1.6314  1.0000</r>
       <r>   1.6319  1.0000</r>
       <r>   1.6319  1.0000</r>
       <r>   1.6359  1.0000</r>
       <r>   1.6359  1.0000</r>
       <r>   1.8942  1.0000</r>
       <r>   1.8942  1.0000</r>
       <r>   1.8942  1.0000</r>
       <r>   1.8942  1.0000</r>
       <r>   1.9721  1.0000</r>
       <r>   1.9721  1.0000</r>
       <r>   2.0811  1.0000</r>
       <r>   2.3179  1.0000</r>
       <r>   2.3179  1.0000</r>
       <r>   2.3179  1.0000</r>
       <r>   2.3179  1.0000</r>
       <r>   2.4353  1.0000</r>
       <r>   2.4353  1.0000</r>
       <r>   2.4353  1.0000</r>
       <r>   2.4353  1.0000</r>
       <r>   2.5094  1.0000</r>
       <r>   2.5094  1.0000</r>
       <r>   2.5094  1.0000</r>
       <r>   2.5094  1.0000</r>
       <r>   2.5724  1.0000</r>
       <r>   2.5847  1.0000</r>
       <r>   2.5847  1.0000</r>
       <r>   2.5847  1.0000</r>
       <r>   2.5847  1.0000</r>
       <r>   2.6937  1.0000</r>
       <r>   2.6939  1.0000</r>
       <r>   2.6939  1.0000</r>
       <r>   2.6939  1.0000</r>
       <r>   2.7086  1.0000</r>
       <r>   2.7086  1.0000</r>
       <r>   2.7086  1.0000</r>
       <r>   2.7087  1.0000</r>
       <r>   2.7091  1.0000</r>
       <r>   2.8576  1.0000</r>
       <r>   2.9321  1.0000</r>
       <r>   2.9321  1.0000</r>
       <r>   3.1295  1.0000</r>
       <r>   3.1296  1.0000</r>
       <r>   3.1296  1.0000</r>
       <r>   3.1296  1.0000</r>
       <r>   3.1357  1.0000</r>
       <r>   3.1357  1.0000</r>
       <r>   3.1684  1.0000</r>
       <r>   3.2142  1.0000</r>
       <r>   3.2142  1.0000</r>
       <r>   3.2143  1.0000</r>
       <r>   3.2143  1.0000</r>
       <r>   3.3775  1.0000</r>
       <r>   3.3775  1.0000</r>
       <r>   3.3775  1.0000</r>
       <r>   3.3776  1.0000</r>
       <r>   3.5644  1.0000</r>
       <r>   3.5644  1.0000</r>
       <r>   3.5644  1.0000</r>
       <r>   3.5644  1.0000</r>
       <r>   3.6323  1.0000</r>
       <r>   3.7809  1.0000</r>
       <r>   3.7809  1.0000</r>
       <r>   3.8777  1.0000</r>
       <r>   3.8777  1.0000</r>
       <r>   3.9470  1.0000</r>
       <r>   3.9470  1.0000</r>
       <r>   3.9470  1.0000</r>
       <r>   3.9470  1.0000</r>
       <r>   3.9802  1.0000</r>
       <r>   4.2194  1.0000</r>
       <r>   4.2194  1.0000</r>
       <r>   4.2194  1.0000</r>
       <r>   4.2194  1.0000</r>
       <r>   4.2297  1.0000</r>
       <r>   4.2298  1.0000</r>
       <r>   4.4136  1.0000</r>
       <r>   4.4141  1.0000</r>
       <r>   4.4156  1.0000</r>
       <r>   4.4161  1.0000</r>
       <r>   4.9618  1.0000</r>
       <r>   4.9618  1.0000</r>
       <r>   4.9618  1.0000</r>
       <r>   4.9619  1.0000</r>
       <r>   5.4058  1.0000</r>
       <r>   5.4058  1.0000</r>
       <r>   5.4058  1.0000</r>
       <r>   5.4058  1.0000</r>
       <r>   5.8140  1.0000</r>
       <r>   5.8141  1.0000</r>
       <r>   5.8141  1.0000</r>
       <r>   5.8141  1.0000</r>
       <r>   5.9473  1.0000</r>
       <r>   6.8871  0.0000</r>
       <r>   6.8871  0.0000</r>
       <r>   6.8871  0.0000</r>
       <r>   6.8871  0.0000</r>
       <r>   7.8298  0.0000</r>
       <r>   7.8298  0.0000</r>
       <r>   9.8976  0.0000</r>
       <r>   9.8976  0.0000</r>
       <r>   9.8978  0.0000</r>
       <r>   9.8978  0.0000</r>
       <r>   9.9272  0.0000</r>
       <r>   9.9272  0.0000</r>
       <r>   9.9273  0.0000</r>
       <r>   9.9273  0.0000</r>
       <r>  10.9137  0.0000</r>
       <r>  10.9137  0.0000</r>
       <r>  11.2388  0.0000</r>
       <r>  11.2389  0.0000</r>
       <r>  11.9849  0.0000</r>
       <r>  11.9849  0.0000</r>
       <r>  12.8948  0.0000</r>
       <r>  12.8948  0.0000</r>
       <r>  12.8948  0.0000</r>
       <r>  12.8948  0.0000</r>
       <r>  13.0254  0.0000</r>
       <r>  13.0254  0.0000</r>
       <r>  13.0254  0.0000</r>
       <r>  13.0254  0.0000</r>
       <r>  13.2861  0.0000</r>
       <r>  13.2861  0.0000</r>
       <r>  13.2862  0.0000</r>
       <r>  13.2862  0.0000</r>
       <r>  13.6092  0.0000</r>
       <r>  14.0477  0.0000</r>
       <r>  14.0477  0.0000</r>
       <r>  14.0478  0.0000</r>
       <r>  14.0478  0.0000</r>
       <r>  14.0506  0.0000</r>
       <r>  14.0506  0.0000</r>
       <r>  15.1299  0.0000</r>
       <r>  15.1300  0.0000</r>
       <r>  15.1300  0.0000</r>
       <r>  15.1300  0.0000</r>
       <r>  15.7854  0.0000</r>
      </set>
      <set comment="kpoint 5">
       <r>  -3.7023  1.0000</r>
       <r>  -2.7711  1.0000</r>
       <r>  -1.3299  1.0000</r>
       <r>  -1.3298  1.0000</r>
       <r>  -1.3298  1.0000</r>
       <r>  -1.3298  1.0000</r>
       <r>  -1.3019  1.0000</r>
       <r>  -1.3019  1.0000</r>
       <r>  -1.3019  1.0000</r>
       <r>  -1.3019  1.0000</r>
       <r>  -1.1501  1.0000</r>
       <r>  -1.0408  1.0000</r>
       <r>  -1.0408  1.0000</r>
       <r>  -1.0100  1.0000</r>
       <r>  -0.8159  1.0000</r>
       <r>  -0.7629  1.0000</r>
       <r>  -0.7629  1.0000</r>
       <r>  -0.7627  1.0000</r>
       <r>  -0.7627  1.0000</r>
       <r>  -0.7501  1.0000</r>
       <r>  -0.7501  1.0000</r>
       <r>  -0.7486  1.0000</r>
       <r>  -0.7486  1.0000</r>
       <r>  -0.7485  1.0000</r>
       <r>  -0.7485  1.0000</r>
       <r>  -0.4933  1.0000</r>
       <r>  -0.4933  1.0000</r>
       <r>  -0.4674  1.0000</r>
       <r>  -0.1886  1.0000</r>
       <r>  -0.1886  1.0000</r>
       <r>   0.0375  1.0000</r>
       <r>   0.0376  1.0000</r>
       <r>   0.0376  1.0000</r>
       <r>   0.0376  1.0000</r>
       <r>   0.1176  1.0000</r>
       <r>   0.1176  1.0000</r>
       <r>   0.1176  1.0000</r>
       <r>   0.1176  1.0000</r>
       <r>   0.1457  1.0000</r>
       <r>   0.1458  1.0000</r>
       <r>   0.1458  1.0000</r>
       <r>   0.1458  1.0000</r>
       <r>   0.4044  1.0000</r>
       <r>   0.4045  1.0000</r>
       <r>   0.4045  1.0000</r>
       <r>   0.4045  1.0000</r>
       <r>   0.5710  1.0000</r>
       <r>   0.5710  1.0000</r>
       <r>   0.5710  1.0000</r>
       <r>   0.5711  1.0000</r>
       <r>   0.6010  1.0000</r>
       <r>   0.6088  1.0000</r>
       <r>   0.6088  1.0000</r>
       <r>   0.6088  1.0000</r>
       <r>   0.6089  1.0000</r>
       <r>   0.7462  1.0000</r>
       <r>   0.7470  1.0000</r>
       <r>   0.7470  1.0000</r>
       <r>   0.7471  1.0000</r>
       <r>   0.7580  1.0000</r>
       <r>   0.7580  1.0000</r>
       <r>   0.7580  1.0000</r>
       <r>   0.7589  1.0000</r>
       <r>   0.9305  1.0000</r>
       <r>   0.9305  1.0000</r>
       <r>   0.9305  1.0000</r>
       <r>   0.9305  1.0000</r>
       <r>   1.0471  1.0000</r>
       <r>   1.1006  1.0000</r>
       <r>   1.1006  1.0000</r>
       <r>   1.1006  1.0000</r>
       <r>   1.1007  1.0000</r>
       <r>   1.1241  1.0000</r>
       <r>   1.1241  1.0000</r>
       <r>   1.1241  1.0000</r>
       <r>   1.1242  1.0000</r>
       <r>   1.3341  1.0000</r>
       <r>   1.3341  1.0000</r>
       <r>   1.3341  1.0000</r>
       <r>   1.3341  1.0000</r>
       <r>   1.3725  1.0000</r>
       <r>   1.3725  1.0000</r>
       <r>   1.4928  1.0000</r>
       <r>   1.4928  1.0000</r>
       <r>   1.4928  1.0000</r>
       <r>   1.4928  1.0000</r>
       <r>   1.6684  1.0000</r>
       <r>   1.6684  1.0000</r>
       <r>   1.6684  1.0000</r>
       <r>   1.6685  1.0000</r>
       <r>   1.7609  1.0000</r>
       <r>   1.7609  1.0000</r>
       <r>   1.7609  1.0000</r>
       <r>   1.7609  1.0000</r>
       <r>   1.8189  1.0000</r>
       <r>   1.8189  1.0000</r>
       <r>   1.9724  1.0000</r>
       <r>   1.9724  1.0000</r>
       <r>   2.1902  1.0000</r>
       <r>   2.4193  1.0000</r>
       <r>   2.4193  1.0000</r>
       <r>   2.4194  1.0000</r>
       <r>   2.4194  1.0000</r>
       <r>   2.5082  1.0000</r>
       <r>   2.5082  1.0000</r>
       <r>   2.5082  1.0000</r>
       <r>   2.5083  1.0000</r>
       <r>   2.5353  1.0000</r>
       <r>   2.5353  1.0000</r>
       <r>   2.5353  1.0000</r>
       <r>   2.5353  1.0000</r>
       <r>   2.5492  1.0000</r>
       <r>   2.5492  1.0000</r>
       <r>   2.5492  1.0000</r>
       <r>   2.5492  1.0000</r>
       <r>   2.6304  1.0000</r>
       <r>   2.7028  1.0000</r>
       <r>   2.7029  1.0000</r>
       <r>   2.7030  1.0000</r>
       <r>   2.7030  1.0000</r>
       <r>   2.7194  1.0000</r>
       <r>   2.7194  1.0000</r>
       <r>   2.7195  1.0000</r>
       <r>   2.7195  1.0000</r>
       <r>   2.8901  1.0000</r>
       <r>   2.9947  1.0000</r>
       <r>   3.0287  1.0000</r>
       <r>   3.0287  1.0000</r>
       <r>   3.0287  1.0000</r>
       <r>   3.0287  1.0000</r>
       <r>   3.0989  1.0000</r>
       <r>   3.1014  1.0000</r>
       <r>   3.1022  1.0000</r>
       <r>   3.2903  1.0000</r>
       <r>   3.2903  1.0000</r>
       <r>   3.2903  1.0000</r>
       <r>   3.2903  1.0000</r>
       <r>   3.3475  1.0000</r>
       <r>   3.3475  1.0000</r>
       <r>   3.3849  1.0000</r>
       <r>   3.3849  1.0000</r>
       <r>   3.3850  1.0000</r>
       <r>   3.3850  1.0000</r>
       <r>   3.4267  1.0000</r>
       <r>   3.4267  1.0000</r>
       <r>   3.7062  1.0000</r>
       <r>   3.7254  1.0000</r>
       <r>   3.7254  1.0000</r>
       <r>   3.7254  1.0000</r>
       <r>   3.7255  1.0000</r>
       <r>   3.7629  1.0000</r>
       <r>   3.7630  1.0000</r>
       <r>   3.8516  1.0000</r>
       <r>   3.8516  1.0000</r>
       <r>   3.8516  1.0000</r>
       <r>   3.8517  1.0000</r>
       <r>   3.9422  1.0000</r>
       <r>   4.0814  1.0000</r>
       <r>   4.0814  1.0000</r>
       <r>   4.0815  1.0000</r>
       <r>   4.0815  1.0000</r>
       <r>   4.0961  1.0000</r>
       <r>   4.0961  1.0000</r>
       <r>   4.4137  1.0000</r>
       <r>   4.4143  1.0000</r>
       <r>   4.4153  1.0000</r>
       <r>   4.4159  1.0000</r>
       <r>   4.6879  1.0000</r>
       <r>   4.6879  1.0000</r>
       <r>   4.6879  1.0000</r>
       <r>   4.6879  1.0000</r>
       <r>   5.3259  1.0000</r>
       <r>   5.5357  1.0000</r>
       <r>   5.5357  1.0000</r>
       <r>   5.5357  1.0000</r>
       <r>   5.5357  1.0000</r>
       <r>   5.7914  1.0000</r>
       <r>   5.7914  1.0000</r>
       <r>   5.7914  1.0000</r>
       <r>   5.7915  1.0000</r>
       <r>   7.3045  0.0000</r>
       <r>   7.3045  0.0000</r>
       <r>   7.3045  0.0000</r>
       <r>   7.3045  0.0000</r>
       <r>   8.2802  0.0000</r>
       <r>   8.2802  0.0000</r>
       <r>   9.3587  0.0000</r>
       <r>   9.3587  0.0000</r>
       <r>   9.3587  0.0000</r>
       <r>   9.3587  0.0000</r>
       <r>  10.2940  0.0000</r>
       <r>  10.2940  0.0000</r>
       <r>  10.2940  0.0000</r>
       <r>  10.2940  0.0000</r>
       <r>  10.3654  0.0000</r>
       <r>  10.3654  0.0000</r>
       <r>  11.3350  0.0000</r>
       <r>  11.3350  0.0000</r>
       <r>  11.8619  0.0000</r>
       <r>  11.8619  0.0000</r>
       <r>  12.6010  0.0000</r>
       <r>  12.6011  0.0000</r>
       <r>  12.6011  0.0000</r>
       <r>  12.6011  0.0000</r>
       <r>  13.1536  0.0000</r>
       <r>  13.1536  0.0000</r>
       <r>  13.1536  0.0000</r>
       <r>  13.1536  0.0000</r>
       <r>  13.1819  0.0000</r>
       <r>  13.1819  0.0000</r>
       <r>  13.1820  0.0000</r>
       <r>  13.1820  0.0000</r>
       <r>  13.8290  0.0000</r>
       <r>  13.8290  0.0000</r>
       <r>  13.8290  0.0000</r>
       <r>  13.8290  0.0000</r>
       <r>  14.4811  0.0000</r>
       <r>  14.5032  0.0000</r>
       <r>  14.5032  0.0000</r>
       <r>  14.6712  0.0000</r>
       <r>  14.6713  0.0000</r>
       <r>  14.6713  0.0000</r>
       <r>  14.6713  0.0000</r>
       <r>  15.8437  0.0000</r>
      </set>
      <set comment="kpoint 6">
       <r>  -3.5201  1.0000</r>
       <r>  -3.0505  1.0000</r>
       <r>  -1.2062  1.0000</r>
       <r>  -1.2062  1.0000</r>
       <r>  -1.2062  1.0000</r>
       <r>  -1.2061  1.0000</r>
       <r>  -1.1969  1.0000</r>
       <r>  -1.1969  1.0000</r>
       <r>  -1.1968  1.0000</r>
       <r>  -1.1968  1.0000</r>
       <r>  -1.0998  1.0000</r>
       <r>  -1.0172  1.0000</r>
       <r>  -0.9253  1.0000</r>
       <r>  -0.9250  1.0000</r>
       <r>  -0.9250  1.0000</r>
       <r>  -0.9249  1.0000</r>
       <r>  -0.9243  1.0000</r>
       <r>  -0.9241  1.0000</r>
       <r>  -0.9086  1.0000</r>
       <r>  -0.9086  1.0000</r>
       <r>  -0.9086  1.0000</r>
       <r>  -0.9084  1.0000</r>
       <r>  -0.7483  1.0000</r>
       <r>  -0.6444  1.0000</r>
       <r>  -0.6444  1.0000</r>
       <r>  -0.6434  1.0000</r>
       <r>  -0.6434  1.0000</r>
       <r>  -0.5730  1.0000</r>
       <r>  -0.3634  1.0000</r>
       <r>  -0.3634  1.0000</r>
       <r>   0.1081  1.0000</r>
       <r>   0.1083  1.0000</r>
       <r>   0.1083  1.0000</r>
       <r>   0.1083  1.0000</r>
       <r>   0.1641  1.0000</r>
       <r>   0.1641  1.0000</r>
       <r>   0.1641  1.0000</r>
       <r>   0.1642  1.0000</r>
       <r>   0.2001  1.0000</r>
       <r>   0.2001  1.0000</r>
       <r>   0.2001  1.0000</r>
       <r>   0.2002  1.0000</r>
       <r>   0.3321  1.0000</r>
       <r>   0.3322  1.0000</r>
       <r>   0.3322  1.0000</r>
       <r>   0.3322  1.0000</r>
       <r>   0.5128  1.0000</r>
       <r>   0.5132  1.0000</r>
       <r>   0.5132  1.0000</r>
       <r>   0.5133  1.0000</r>
       <r>   0.5179  1.0000</r>
       <r>   0.5180  1.0000</r>
       <r>   0.5180  1.0000</r>
       <r>   0.5184  1.0000</r>
       <r>   0.7297  1.0000</r>
       <r>   0.7523  1.0000</r>
       <r>   0.7534  1.0000</r>
       <r>   0.7534  1.0000</r>
       <r>   0.7535  1.0000</r>
       <r>   0.7607  1.0000</r>
       <r>   0.7608  1.0000</r>
       <r>   0.7608  1.0000</r>
       <r>   0.7621  1.0000</r>
       <r>   0.9556  1.0000</r>
       <r>   0.9760  1.0000</r>
       <r>   0.9760  1.0000</r>
       <r>   0.9760  1.0000</r>
       <r>   0.9761  1.0000</r>
       <r>   1.0621  1.0000</r>
       <r>   1.0621  1.0000</r>
       <r>   1.0622  1.0000</r>
       <r>   1.0622  1.0000</r>
       <r>   1.1807  1.0000</r>
       <r>   1.1807  1.0000</r>
       <r>   1.1807  1.0000</r>
       <r>   1.1808  1.0000</r>
       <r>   1.3676  1.0000</r>
       <r>   1.3677  1.0000</r>
       <r>   1.3677  1.0000</r>
       <r>   1.3678  1.0000</r>
       <r>   1.4187  1.0000</r>
       <r>   1.4187  1.0000</r>
       <r>   1.4187  1.0000</r>
       <r>   1.4187  1.0000</r>
       <r>   1.4577  1.0000</r>
       <r>   1.4577  1.0000</r>
       <r>   1.6344  1.0000</r>
       <r>   1.6344  1.0000</r>
       <r>   1.6344  1.0000</r>
       <r>   1.6344  1.0000</r>
       <r>   1.6816  1.0000</r>
       <r>   1.6816  1.0000</r>
       <r>   1.9854  1.0000</r>
       <r>   1.9854  1.0000</r>
       <r>   1.9854  1.0000</r>
       <r>   1.9854  1.0000</r>
       <r>   2.3081  1.0000</r>
       <r>   2.3241  1.0000</r>
       <r>   2.3241  1.0000</r>
       <r>   2.5093  1.0000</r>
       <r>   2.5093  1.0000</r>
       <r>   2.5093  1.0000</r>
       <r>   2.5093  1.0000</r>
       <r>   2.5214  1.0000</r>
       <r>   2.5216  1.0000</r>
       <r>   2.5216  1.0000</r>
       <r>   2.5216  1.0000</r>
       <r>   2.5270  1.0000</r>
       <r>   2.5270  1.0000</r>
       <r>   2.5271  1.0000</r>
       <r>   2.5271  1.0000</r>
       <r>   2.5346  1.0000</r>
       <r>   2.6155  1.0000</r>
       <r>   2.6155  1.0000</r>
       <r>   2.6155  1.0000</r>
       <r>   2.6155  1.0000</r>
       <r>   2.6734  1.0000</r>
       <r>   2.6736  1.0000</r>
       <r>   2.6736  1.0000</r>
       <r>   2.6737  1.0000</r>
       <r>   2.6830  1.0000</r>
       <r>   2.6831  1.0000</r>
[...]
       <r>   3.0371  1.0000</r>
       <r>   3.0372  1.0000</r>
       <r>   3.0372  1.0000</r>
       <r>   3.0372  1.0000</r>
       <r>   3.0602  1.0000</r>
       <r>   3.0602  1.0000</r>
       <r>   3.0602  1.0000</r>
       <r>   3.0604  1.0000</r>
       <r>   3.2881  1.0000</r>
       <r>   3.2881  1.0000</r>
       <r>   3.2881  1.0000</r>
       <r>   3.2881  1.0000</r>
       <r>   4.0902  1.0000</r>
       <r>   4.0902  1.0000</r>
       <r>   4.0905  1.0000</r>
       <r>   4.0905  1.0000</r>
       <r>   4.0905  1.0000</r>
       <r>   4.0905  1.0000</r>
       <r>   4.0908  1.0000</r>
       <r>   4.0908  1.0000</r>
       <r>   4.1125  1.0000</r>
       <r>   4.1125  1.0000</r>
       <r>   4.1125  1.0000</r>
       <r>   4.1125  1.0000</r>
       <r>   4.1409  1.0000</r>
       <r>   4.1409  1.0000</r>
       <r>   4.1412  1.0000</r>
       <r>   4.1413  1.0000</r>
       <r>   4.1413  1.0000</r>
       <r>   4.1413  1.0000</r>
       <r>   4.1415  1.0000</r>
       <r>   4.1415  1.0000</r>
       <r>   4.1423  1.0000</r>
       <r>   4.1424  1.0000</r>
       <r>   4.1425  1.0000</r>
       <r>   4.1425  1.0000</r>
       <r>   5.9441  1.0000</r>
       <r>   5.9441  1.0000</r>
       <r>   5.9442  1.0000</r>
       <r>   5.9442  1.0000</r>
       <r>   6.6949  0.0000</r>
       <r>   6.6949  0.0000</r>
       <r>   6.6954  0.0000</r>
       <r>   6.6954  0.0000</r>
       <r>   6.6954  0.0000</r>
       <r>   6.6954  0.0000</r>
       <r>   6.6958  0.0000</r>
       <r>   6.6958  0.0000</r>
       <r>   7.7410  0.0000</r>
       <r>   7.7410  0.0000</r>
       <r>   7.7420  0.0000</r>
       <r>   7.7420  0.0000</r>
       <r>   7.7420  0.0000</r>
       <r>   7.7420  0.0000</r>
       <r>   7.7431  0.0000</r>
       <r>   7.7431  0.0000</r>
       <r>   8.5068  0.0000</r>
       <r>   8.5068  0.0000</r>
       <r>   8.5068  0.0000</r>
       <r>   8.5068  0.0000</r>
       <r>  10.7040  0.0000</r>
       <r>  10.7040  0.0000</r>
       <r>  10.7042  0.0000</r>
       <r>  10.7042  0.0000</r>
       <r>  10.7042  0.0000</r>
       <r>  10.7042  0.0000</r>
       <r>  10.7044  0.0000</r>
       <r>  10.7044  0.0000</r>
       <r>  11.0504  0.0000</r>
       <r>  11.0504  0.0000</r>
       <r>  11.0504  0.0000</r>
       <r>  11.0504  0.0000</r>
       <r>  12.5234  0.0000</r>
       <r>  12.5234  0.0000</r>
       <r>  12.5234  0.0000</r>
       <r>  12.5234  0.0000</r>
       <r>  12.8392  0.0000</r>
       <r>  12.8392  0.0000</r>
       <r>  12.8395  0.0000</r>
       <r>  12.8395  0.0000</r>
       <r>  12.8395  0.0000</r>
       <r>  12.8395  0.0000</r>
       <r>  12.8398  0.0000</r>
       <r>  12.8398  0.0000</r>
       <r>  16.1613  0.0000</r>
       <r>  16.1614  0.0000</r>
       <r>  16.1614  0.0000</r>
       <r>  16.1614  0.0000</r>
       <r>  16.5019  0.0000</r>
       <r>  16.5019  0.0000</r>
       <r>  16.5019  0.0000</r>
       <r>  16.5019  0.0000</r>
      </set>
      <set comment="kpoint 195">
       <r>  -2.3308  1.0000</r>
       <r>  -2.3307  1.0000</r>
       <r>  -2.3307  1.0000</r>
       <r>  -2.3307  1.0000</r>
       <r>  -2.0540  1.0000</r>
       <r>  -2.0540  1.0000</r>
       <r>  -2.0540  1.0000</r>
       <r>  -2.0540  1.0000</r>
       <r>  -0.6495  1.0000</r>
       <r>  -0.6493  1.0000</r>
       <r>  -0.6493  1.0000</r>
       <r>  -0.6493  1.0000</r>
       <r>  -0.6267  1.0000</r>
       <r>  -0.6267  1.0000</r>
       <r>  -0.6264  1.0000</r>
       <r>  -0.6264  1.0000</r>
       <r>  -0.6263  1.0000</r>
       <r>  -0.6261  1.0000</r>
       <r>  -0.6260  1.0000</r>
       <r>  -0.6260  1.0000</r>
       <r>  -0.5993  1.0000</r>
       <r>  -0.5988  1.0000</r>
       <r>  -0.5988  1.0000</r>
       <r>  -0.5987  1.0000</r>
       <r>  -0.5898  1.0000</r>
       <r>  -0.5898  1.0000</r>
       <r>  -0.5892  1.0000</r>
       <r>  -0.5892  1.0000</r>
       <r>  -0.5891  1.0000</r>
       <r>  -0.5886  1.0000</r>
       <r>  -0.5883  1.0000</r>
       <r>  -0.5883  1.0000</r>
       <r>   0.1915  1.0000</r>
       <r>   0.1915  1.0000</r>
       <r>   0.1922  1.0000</r>
       <r>   0.1922  1.0000</r>
       <r>   0.1922  1.0000</r>
       <r>   0.1923  1.0000</r>
       <r>   0.1929  1.0000</r>
       <r>   0.1929  1.0000</r>
       <r>   0.2266  1.0000</r>
       <r>   0.2268  1.0000</r>
       <r>   0.2268  1.0000</r>
       <r>   0.2268  1.0000</r>
       <r>   0.4345  1.0000</r>
       <r>   0.4346  1.0000</r>
       <r>   0.4346  1.0000</r>
       <r>   0.4353  1.0000</r>
       <r>   0.4353  1.0000</r>
       <r>   0.4354  1.0000</r>
       <r>   0.4355  1.0000</r>
       <r>   0.4355  1.0000</r>
       <r>   0.4357  1.0000</r>
       <r>   0.4361  1.0000</r>
       <r>   0.4361  1.0000</r>
       <r>   0.4364  1.0000</r>
       <r>   1.0142  1.0000</r>
       <r>   1.0142  1.0000</r>
       <r>   1.0142  1.0000</r>
       <r>   1.0143  1.0000</r>
       <r>   1.1445  1.0000</r>
       <r>   1.1445  1.0000</r>
       <r>   1.1446  1.0000</r>
       <r>   1.1446  1.0000</r>
       <r>   1.4730  1.0000</r>
       <r>   1.4731  1.0000</r>
       <r>   1.4731  1.0000</r>
       <r>   1.4732  1.0000</r>
       <r>   1.4995  1.0000</r>
       <r>   1.4995  1.0000</r>
       <r>   1.4995  1.0000</r>
       <r>   1.4997  1.0000</r>
       <r>   1.5097  1.0000</r>
       <r>   1.5098  1.0000</r>
       <r>   1.5098  1.0000</r>
       <r>   1.5099  1.0000</r>
       <r>   1.5281  1.0000</r>
       <r>   1.5281  1.0000</r>
       <r>   1.5284  1.0000</r>
       <r>   1.5285  1.0000</r>
       <r>   1.5303  1.0000</r>
       <r>   1.5307  1.0000</r>
       <r>   1.5307  1.0000</r>
       <r>   1.5307  1.0000</r>
       <r>   1.5374  1.0000</r>
       <r>   1.5374  1.0000</r>
       <r>   1.5392  1.0000</r>
       <r>   1.5392  1.0000</r>
       <r>   1.5392  1.0000</r>
       <r>   1.5397  1.0000</r>
       <r>   1.5414  1.0000</r>
       <r>   1.5414  1.0000</r>
       <r>   1.6471  1.0000</r>
       <r>   1.6471  1.0000</r>
       <r>   1.6487  1.0000</r>
       <r>   1.6487  1.0000</r>
       <r>   1.6487  1.0000</r>
       <r>   1.6488  1.0000</r>
       <r>   1.6504  1.0000</r>
       <r>   1.6504  1.0000</r>
       <r>   1.7172  1.0000</r>
       <r>   1.7172  1.0000</r>
       <r>   1.7172  1.0000</r>
       <r>   1.7172  1.0000</r>
       <r>   2.3154  1.0000</r>
       <r>   2.3155  1.0000</r>
       <r>   2.3155  1.0000</r>
       <r>   2.3155  1.0000</r>
       <r>   2.3588  1.0000</r>
       <r>   2.3588  1.0000</r>
       <r>   2.3594  1.0000</r>
       <r>   2.3595  1.0000</r>
       <r>   2.3595  1.0000</r>
       <r>   2.3595  1.0000</r>
       <r>   2.3602  1.0000</r>
       <r>   2.3602  1.0000</r>
       <r>   2.5899  1.0000</r>
       <r>   2.5899  1.0000</r>
       <r>   2.5907  1.0000</r>
       <r>   2.5908  1.0000</r>
       <r>   2.5908  1.0000</r>
       <r>   2.5908  1.0000</r>
       <r>   2.5917  1.0000</r>
       <r>   2.5917  1.0000</r>
       <r>   2.6070  1.0000</r>
       <r>   2.6070  1.0000</r>
       <r>   2.6070  1.0000</r>
       <r>   2.6071  1.0000</r>
       <r>   2.8439  1.0000</r>
       <r>   2.8439  1.0000</r>
       <r>   2.8439  1.0000</r>
       <r>   2.8439  1.0000</r>
       <r>   2.9873  1.0000</r>
       <r>   2.9874  1.0000</r>
       <r>   2.9875  1.0000</r>
       <r>   2.9875  1.0000</r>
       <r>   3.0186  1.0000</r>
       <r>   3.0186  1.0000</r>
       <r>   3.0186  1.0000</r>
       <r>   3.0188  1.0000</r>
       <r>   3.1379  1.0000</r>
       <r>   3.1379  1.0000</r>
       <r>   3.1379  1.0000</r>
       <r>   3.1379  1.0000</r>
       <r>   4.1388  1.0000</r>
       <r>   4.1388  1.0000</r>
       <r>   4.1389  1.0000</r>
       <r>   4.1389  1.0000</r>
       <r>   4.1389  1.0000</r>
       <r>   4.1390  1.0000</r>
       <r>   4.1391  1.0000</r>
       <r>   4.1391  1.0000</r>
       <r>   4.1501  1.0000</r>
       <r>   4.1501  1.0000</r>
       <r>   4.1501  1.0000</r>
       <r>   4.1501  1.0000</r>
       <r>   4.1669  1.0000</r>
       <r>   4.1669  1.0000</r>
       <r>   4.1670  1.0000</r>
       <r>   4.1670  1.0000</r>
       <r>   4.1722  1.0000</r>
       <r>   4.1722  1.0000</r>
       <r>   4.1724  1.0000</r>
       <r>   4.1724  1.0000</r>
       <r>   4.1724  1.0000</r>
       <r>   4.1724  1.0000</r>
       <r>   4.1726  1.0000</r>
       <r>   4.1726  1.0000</r>
       <r>   6.5435  0.0000</r>
       <r>   6.5435  0.0000</r>
       <r>   6.5435  0.0000</r>
       <r>   6.5436  0.0000</r>
       <r>   6.9204  0.0000</r>
       <r>   6.9204  0.0000</r>
       <r>   6.9210  0.0000</r>
       <r>   6.9210  0.0000</r>
       <r>   6.9210  0.0000</r>
       <r>   6.9210  0.0000</r>
       <r>   6.9216  0.0000</r>
       <r>   6.9216  0.0000</r>
       <r>   7.4517  0.0000</r>
       <r>   7.4517  0.0000</r>
       <r>   7.4526  0.0000</r>
       <r>   7.4526  0.0000</r>
       <r>   7.4526  0.0000</r>
       <r>   7.4526  0.0000</r>
       <r>   7.4535  0.0000</r>
       <r>   7.4535  0.0000</r>
       <r>   7.8350  0.0000</r>
       <r>   7.8350  0.0000</r>
       <r>   7.8351  0.0000</r>
       <r>   7.8351  0.0000</r>
       <r>  11.1840  0.0000</r>
       <r>  11.1840  0.0000</r>
       <r>  11.1841  0.0000</r>
       <r>  11.1842  0.0000</r>
       <r>  11.1842  0.0000</r>
       <r>  11.1842  0.0000</r>
       <r>  11.1843  0.0000</r>
       <r>  11.1843  0.0000</r>
       <r>  11.3504  0.0000</r>
       <r>  11.3504  0.0000</r>
       <r>  11.3504  0.0000</r>
       <r>  11.3504  0.0000</r>
       <r>  12.0968  0.0000</r>
       <r>  12.0968  0.0000</r>
       <r>  12.0969  0.0000</r>
       <r>  12.0969  0.0000</r>
       <r>  12.2568  0.0000</r>
       <r>  12.2568  0.0000</r>
       <r>  12.2570  0.0000</r>
       <r>  12.2570  0.0000</r>
       <r>  12.2570  0.0000</r>
       <r>  12.2570  0.0000</r>
       <r>  12.2572  0.0000</r>
       <r>  12.2572  0.0000</r>
       <r>  17.0428  0.0000</r>
       <r>  17.0428  0.0000</r>
       <r>  17.0428  0.0000</r>
       <r>  17.0431  0.0000</r>
       <r>  17.0438  0.0000</r>
       <r>  17.0438  0.0000</r>
       <r>  17.0440  0.0000</r>
       <r>  17.0440  0.0000</r>
      </set>
      <set comment="kpoint 196">
       <r>  -2.2052  1.0000</r>
       <r>  -2.2015  1.0000</r>
       <r>  -2.2015  1.0000</r>
       <r>  -2.2009  1.0000</r>
       <r>  -2.2005  1.0000</r>
       <r>  -2.1999  1.0000</r>
       <r>  -2.1999  1.0000</r>
       <r>  -2.1962  1.0000</r>
       <r>  -0.6170  1.0000</r>
       <r>  -0.6169  1.0000</r>
       <r>  -0.6168  1.0000</r>
       <r>  -0.6168  1.0000</r>
       <r>  -0.6159  1.0000</r>
       <r>  -0.6150  1.0000</r>
       <r>  -0.6141  1.0000</r>
       <r>  -0.6140  1.0000</r>
       <r>  -0.6140  1.0000</r>
       <r>  -0.6140  1.0000</r>
       <r>  -0.6140  1.0000</r>
       <r>  -0.6138  1.0000</r>
       <r>  -0.6137  1.0000</r>
       <r>  -0.6135  1.0000</r>
       <r>  -0.6135  1.0000</r>
       <r>  -0.6135  1.0000</r>
       <r>  -0.6135  1.0000</r>
       <r>  -0.6134  1.0000</r>
       <r>  -0.6126  1.0000</r>
       <r>  -0.6116  1.0000</r>
       <r>  -0.6107  1.0000</r>
       <r>  -0.6107  1.0000</r>
       <r>  -0.6107  1.0000</r>
       <r>  -0.6106  1.0000</r>
       <r>   0.3157  1.0000</r>
       <r>   0.3200  1.0000</r>
       <r>   0.3206  1.0000</r>
       <r>   0.3208  1.0000</r>
       <r>   0.3208  1.0000</r>
       <r>   0.3216  1.0000</r>
       <r>   0.3220  1.0000</r>
       <r>   0.3220  1.0000</r>
       <r>   0.3223  1.0000</r>
       <r>   0.3224  1.0000</r>
       <r>   0.3224  1.0000</r>
       <r>   0.3224  1.0000</r>
       <r>   0.3225  1.0000</r>
       <r>   0.3225  1.0000</r>
       <r>   0.3225  1.0000</r>
       <r>   0.3226  1.0000</r>
       <r>   0.3228  1.0000</r>
       <r>   0.3228  1.0000</r>
       <r>   0.3233  1.0000</r>
       <r>   0.3241  1.0000</r>
       <r>   0.3241  1.0000</r>
       <r>   0.3242  1.0000</r>
       <r>   0.3248  1.0000</r>
       <r>   0.3291  1.0000</r>
       <r>   1.0834  1.0000</r>
       <r>   1.0857  1.0000</r>
       <r>   1.0863  1.0000</r>
       <r>   1.0863  1.0000</r>
       <r>   1.0864  1.0000</r>
       <r>   1.0864  1.0000</r>
       <r>   1.0871  1.0000</r>
       <r>   1.0893  1.0000</r>
       <r>   1.5111  1.0000</r>
       <r>   1.5111  1.0000</r>
       <r>   1.5117  1.0000</r>
       <r>   1.5121  1.0000</r>
       <r>   1.5129  1.0000</r>
       <r>   1.5130  1.0000</r>
       <r>   1.5131  1.0000</r>
       <r>   1.5131  1.0000</r>
       <r>   1.5136  1.0000</r>
       <r>   1.5136  1.0000</r>
       <r>   1.5137  1.0000</r>
       <r>   1.5138  1.0000</r>
       <r>   1.5145  1.0000</r>
       <r>   1.5147  1.0000</r>
       <r>   1.5152  1.0000</r>
       <r>   1.5152  1.0000</r>
       <r>   1.5864  1.0000</r>
       <r>   1.5864  1.0000</r>
       <r>   1.5878  1.0000</r>
       <r>   1.5880  1.0000</r>
       <r>   1.5901  1.0000</r>
       <r>   1.5910  1.0000</r>
       <r>   1.5911  1.0000</r>
       <r>   1.5911  1.0000</r>
       <r>   1.5912  1.0000</r>
       <r>   1.5912  1.0000</r>
       <r>   1.5913  1.0000</r>
       <r>   1.5913  1.0000</r>
       <r>   1.5914  1.0000</r>
       <r>   1.5914  1.0000</r>
       <r>   1.5915  1.0000</r>
       <r>   1.5915  1.0000</r>
       <r>   1.5916  1.0000</r>
       <r>   1.5916  1.0000</r>
       <r>   1.5917  1.0000</r>
       <r>   1.5927  1.0000</r>
       <r>   1.5948  1.0000</r>
       <r>   1.5949  1.0000</r>
       <r>   1.5965  1.0000</r>
       <r>   1.5965  1.0000</r>
       <r>   2.4542  1.0000</r>
       <r>   2.4561  1.0000</r>
       <r>   2.4561  1.0000</r>
       <r>   2.4591  1.0000</r>
       <r>   2.4593  1.0000</r>
       <r>   2.4594  1.0000</r>
       <r>   2.4594  1.0000</r>
       <r>   2.4598  1.0000</r>
       <r>   2.4600  1.0000</r>
       <r>   2.4600  1.0000</r>
       <r>   2.4600  1.0000</r>
       <r>   2.4600  1.0000</r>
       <r>   2.4601  1.0000</r>
       <r>   2.4602  1.0000</r>
       <r>   2.4602  1.0000</r>
       <r>   2.4602  1.0000</r>
       <r>   2.4604  1.0000</r>
       <r>   2.4608  1.0000</r>
       <r>   2.4608  1.0000</r>
       <r>   2.4608  1.0000</r>
       <r>   2.4611  1.0000</r>
       <r>   2.4641  1.0000</r>
       <r>   2.4641  1.0000</r>
       <r>   2.4659  1.0000</r>
       <r>   2.9846  1.0000</r>
       <r>   2.9865  1.0000</r>
       <r>   2.9867  1.0000</r>
       <r>   2.9867  1.0000</r>
       <r>   2.9881  1.0000</r>
       <r>   2.9881  1.0000</r>
       <r>   2.9884  1.0000</r>
       <r>   2.9885  1.0000</r>
       <r>   2.9886  1.0000</r>
       <r>   2.9888  1.0000</r>
       <r>   2.9891  1.0000</r>
       <r>   2.9891  1.0000</r>
       <r>   2.9906  1.0000</r>
       <r>   2.9906  1.0000</r>
       <r>   2.9907  1.0000</r>
       <r>   2.9926  1.0000</r>
       <r>   4.1680  1.0000</r>
       <r>   4.1680  1.0000</r>
       <r>   4.1684  1.0000</r>
       <r>   4.1687  1.0000</r>
       <r>   4.1687  1.0000</r>
       <r>   4.1687  1.0000</r>
       <r>   4.1687  1.0000</r>
       <r>   4.1687  1.0000</r>
       <r>   4.1689  1.0000</r>
       <r>   4.1690  1.0000</r>
       <r>   4.1690  1.0000</r>
       <r>   4.1691  1.0000</r>
       <r>   4.1693  1.0000</r>
       <r>   4.1694  1.0000</r>
       <r>   4.1694  1.0000</r>
       <r>   4.1695  1.0000</r>
       <r>   4.1696  1.0000</r>
       <r>   4.1697  1.0000</r>
       <r>   4.1697  1.0000</r>
       <r>   4.1697  1.0000</r>
       <r>   4.1698  1.0000</r>
       <r>   4.1701  1.0000</r>
       <r>   4.1704  1.0000</r>
       <r>   4.1704  1.0000</r>
       <r>   7.1703  0.0000</r>
       <r>   7.1728  0.0000</r>
       <r>   7.1728  0.0000</r>
       <r>   7.1750  0.0000</r>
       <r>   7.1758  0.0000</r>
       <r>   7.1760  0.0000</r>
       <r>   7.1760  0.0000</r>
       <r>   7.1760  0.0000</r>
       <r>   7.1761  0.0000</r>
       <r>   7.1762  0.0000</r>
       <r>   7.1763  0.0000</r>
       <r>   7.1763  0.0000</r>
       <r>   7.1766  0.0000</r>
       <r>   7.1766  0.0000</r>
       <r>   7.1767  0.0000</r>
       <r>   7.1768  0.0000</r>
       <r>   7.1768  0.0000</r>
       <r>   7.1768  0.0000</r>
       <r>   7.1769  0.0000</r>
       <r>   7.1770  0.0000</r>
       <r>   7.1778  0.0000</r>
       <r>   7.1801  0.0000</r>
       <r>   7.1801  0.0000</r>
       <r>   7.1826  0.0000</r>
       <r>  11.6968  0.0000</r>
       <r>  11.6968  0.0000</r>
       <r>  11.7005  0.0000</r>
       <r>  11.7009  0.0000</r>
       <r>  11.7015  0.0000</r>
       <r>  11.7020  0.0000</r>
       <r>  11.7020  0.0000</r>
       <r>  11.7027  0.0000</r>
       <r>  11.7028  0.0000</r>
       <r>  11.7028  0.0000</r>
       <r>  11.7029  0.0000</r>
       <r>  11.7029  0.0000</r>
       <r>  11.7030  0.0000</r>
       <r>  11.7030  0.0000</r>
       <r>  11.7030  0.0000</r>
       <r>  11.7030  0.0000</r>
       <r>  11.7031  0.0000</r>
       <r>  11.7038  0.0000</r>
       <r>  11.7038  0.0000</r>
       <r>  11.7043  0.0000</r>
       <r>  11.7050  0.0000</r>
       <r>  11.7054  0.0000</r>
       <r>  11.7091  0.0000</r>
       <r>  11.7091  0.0000</r>
       <r>  17.5942  0.0000</r>
       <r>  17.5942  0.0000</r>
       <r>  17.5948  0.0000</r>
       <r>  17.5958  0.0000</r>
       <r>  17.5992  0.0000</r>
       <r>  17.6001  0.0000</r>
       <r>  17.6007  0.0000</r>
       <r>  17.6007  0.0000</r>
      </set>
     </set>
    </set>
   </array>
  </eigenvalues>
 </calculation>
 <structure name="finalpos" >
  <crystal>
   <varray name="basis" >
    <v>       8.09533269      0.00000000      0.00000000</v>
    <v>       0.00000000      8.09533269      0.00000000</v>
    <v>       0.00000000      0.00000000      8.09533269</v>
   </varray>
   <i name="volume">    530.52286271</i>
   <varray name="rec_basis" >
    <v>       0.12352797      0.00000000      0.00000000</v>
    <v>       0.00000000      0.12352797      0.00000000</v>
    <v>       0.00000000      0.00000000      0.12352797</v>
   </varray>
  </crystal>
  <varray name="positions" >
   <v>       0.00123528      0.00000000      0.00000000</v>
   <v>       0.50000000      0.00000000      0.00000000</v>
   <v>       0.00000000      0.50000000      0.00000000</v>
   <v>       0.50000000      0.50000000      0.00000000</v>
   <v>       0.00000000      0.00000000      0.50000000</v>
   <v>       0.50000000      0.00000000      0.50000000</v>
   <v>       0.00000000      0.50000000      0.50000000</v>
   <v>       0.50000000      0.50000000      0.50000000</v>
   <v>       0.25000000      0.25000000      0.00000000</v>
   <v>       0.75000000      0.25000000      0.00000000</v>
   <v>       0.25000000      0.75000000      0.00000000</v>
   <v>       0.75000000      0.75000000      0.00000000</v>
   <v>       0.25000000      0.25000000      0.50000000</v>
   <v>       0.75000000      0.25000000      0.50000000</v>
   <v>       0.25000000      0.75000000      0.50000000</v>
   <v>       0.75000000      0.75000000      0.50000000</v>
   <v>       0.25000000      0.00000000      0.25000000</v>
   <v>       0.75000000      0.00000000      0.25000000</v>
   <v>       0.25000000      0.50000000      0.25000000</v>
   <v>       0.75000000      0.50000000      0.25000000</v>
   <v>       0.25000000      0.00000000      0.75000000</v>
   <v>       0.75000000      0.00000000      0.75000000</v>
   <v>       0.25000000      0.50000000      0.75000000</v>
   <v>       0.75000000      0.50000000      0.75000000</v>
   <v>       0.00000000      0.25000000      0.25000000</v>
   <v>       0.50000000      0.25000000      0.25000000</v>
   <v>       0.00000000      0.75000000      0.25000000</v>
   <v>       0.50000000      0.75000000      0.25000000</v>
   <v>       0.00000000      0.25000000      0.75000000</v>
   <v>       0.50000000      0.25000000      0.75000000</v>
   <v>       0.00000000      0.75000000      0.75000000</v>
   <v>       0.50000000      0.75000000      0.75000000</v>
  </varray>
 </structure>
</modeling>
