32   
1    

1    
  0.0100000000000000   0.0000000000000000   0.0000000000000000
  -0.0083072100   -0.0000000000    0.0000000000
   0.0033102600    0.0000000000    0.0000000000
  -0.0004746200   -0.0000000000   -0.0000000000
  -0.0017288800   -0.0000000000    0.0000000000
  -0.0004746200    0.0000000000    0.0000000000
  -0.0017288800   -0.0000000000    0.0000000000
   0.0002429100   -0.0000000000    0.0000000000
  -0.0001487700    0.0000000000   -0.0000000000
   0.0014628600    0.0022082000    0.0000000000
   0.0013479700   -0.0020567400    0.0000000000
   0.0014628600   -0.0022082000   -0.0000000000
   0.0013479700    0.0020567400   -0.0000000000
   0.0002474800    0.0000108300   -0.0000000000
   0.0002458900   -0.0000070800    0.0000000000
   0.0002474800   -0.0000108300    0.0000000000
   0.0002458900    0.0000070800    0.0000000000
   0.0014628600    0.0000000000    0.0022082000
   0.0013479700    0.0000000000   -0.0020567400
   0.0002474800    0.0000000000    0.0000108300
   0.0002458900   -0.0000000000   -0.0000070800
   0.0014628600   -0.0000000000   -0.0022082000
   0.0013479700   -0.0000000000    0.0020567400
   0.0002474800    0.0000000000   -0.0000108300
   0.0002458900   -0.0000000000    0.0000070800
  -0.0016205600    0.0000060100    0.0000060100
   0.0006438100    0.0000040200    0.0000040200
  -0.0016205600   -0.0000060100    0.0000060100
   0.0006438100   -0.0000040200    0.0000040200
  -0.0016205600    0.0000060100   -0.0000060100
   0.0006438100    0.0000040200   -0.0000040200
  -0.0016205600   -0.0000060100   -0.0000060100
   0.0006438100   -0.0000040200   -0.0000040200
