mesh: [    48,    48,    48 ]
nqpoint: 2600   
reciprocal_lattice:
- [   0.22607949,   0.00000000,   0.00000000 ] # a*
- [   0.00000000,   0.22607949,   0.00000000 ] # b*
- [   0.00000000,   0.00000000,   0.22607949 ] # c*
natom:   4      
lattice:
- [     4.423223016453760,     0.000000000000000,     0.000000000000000 ] # a
- [     0.000000000000000,     4.423223016453760,     0.000000000000000 ] # b
- [     0.000000000000000,     0.000000000000000,     4.423223016453760 ] # c
points:
- symbol: Au # 1
  coordinates: [  0.000000000000000,  0.000000000000000,  0.000000000000000 ]
  mass: 196.966569
- symbol: Au # 2
  coordinates: [  0.500000000000000,  0.500000000000000,  0.000000000000000 ]
  mass: 196.966569
- symbol: Au # 3
  coordinates: [  0.500000000000000,  0.000000000000000,  0.500000000000000 ]
  mass: 196.966569
- symbol: Au # 4
  coordinates: [  0.000000000000000,  0.500000000000000,  0.500000000000000 ]
  mass: 196.966569
phonon:
- q-position: [    0.0104167,    0.0104167,    0.0104167 ]
  weight: 8    
  band:
  - # 1
    frequency:     0.0104805965
  - # 2
    frequency:     0.0104805965
  - # 3
    frequency:     0.0593571903
  - # 4
    frequency:     0.8172466152
  - # 5
    frequency:     0.8172466152
  - # 6
    frequency:     0.8172466152
  - # 7
    frequency:     0.8186370739
  - # 8
    frequency:     0.8186370739
  - # 9
    frequency:     0.8186370739
  - # 10
    frequency:     1.8101450087
  - # 11
    frequency:     1.8101450087
  - # 12
    frequency:     1.8101450087

- q-position: [    0.0312500,    0.0104167,    0.0104167 ]
  weight: 24   
  band:
  - # 1
    frequency:    -0.0288575692
  - # 2
    frequency:    -0.0170994194
  - # 3
    frequency:     0.1217983589
  - # 4
    frequency:     0.8131782951
  - # 5
    frequency:     0.8131782951
  - # 6
    frequency:     0.8149171013
  - # 7
    frequency:     0.8163065798
  - # 8
    frequency:     0.8183944385
  - # 9
    frequency:     0.8183944385
  - # 10
    frequency:     1.8067919101
  - # 11
    frequency:     1.8067919101
  - # 12
    frequency:     1.8095467112

- q-position: [    0.0520833,    0.0104167,    0.0104167 ]
  weight: 24   
  band:
  - # 1
    frequency:    -0.0518024538
  - # 2
    frequency:    -0.0454349022
  - # 3
    frequency:     0.1958241145
  - # 4
    frequency:     0.8056489103
  - # 5
    frequency:     0.8056489103
  - # 6
    frequency:     0.8102668082
  - # 7
    frequency:     0.8116543972
  - # 8
    frequency:     0.8173674209
  - # 9
    frequency:     0.8173674209
  - # 10
    frequency:     1.8001047364
  - # 11
    frequency:     1.8001047364
  - # 12
    frequency:     1.8083348861

- q-position: [    0.0729167,    0.0104167,    0.0104167 ]
  weight: 24   
  band:
  - # 1
    frequency:    -0.0733081932
  - # 2
    frequency:    -0.0687684198
  - # 3
    frequency:     0.2709746923
  - # 4
    frequency:     0.7945051467
  - # 5
    frequency:     0.7945051467
  - # 6
    frequency:     0.8033131354
  - # 7
    frequency:     0.8046980660
  - # 8
    frequency:     0.8158395632
  - # 9
    frequency:     0.8158395632
  - # 10
    frequency:     1.7901215030
  - # 11
    frequency:     1.7901215030
  - # 12
    frequency:     1.8064793546

- q-position: [    0.0937500,    0.0104167,    0.0104167 ]
  weight: 24   
  band:
  - # 1
    frequency:    -0.0938285846
  - # 2
    frequency:    -0.0902458133
  - # 3
    frequency:     0.3459790161
  - # 4
    frequency:     0.7797405623
  - # 5
    frequency:     0.7797405623
  - # 6
    frequency:     0.7940820070
  - # 7
    frequency:     0.7954637163
  - # 8
    frequency:     0.8140105552
  - # 9
    frequency:     0.8140105552
  - # 10
    frequency:     1.7768991547
  - # 11
    frequency:     1.7768991547
  - # 12
    frequency:     1.8039355451

- q-position: [    0.1145833,    0.0104167,    0.0104167 ]
  weight: 24   
  band:
  - # 1
    frequency:    -0.1133197482
  - # 2
    frequency:    -0.1103195280
  - # 3
    frequency:     0.4203871565
  - # 4
    frequency:     0.7613915562
  - # 5
    frequency:     0.7613915562
  - # 6
    frequency:     0.7826076562
  - # 7
    frequency:     0.7839858491
  - # 8
    frequency:     0.8120974023
  - # 9
    frequency:     0.8120974023
  - # 10
    frequency:     1.7605134726
  - # 11
    frequency:     1.7605134726
  - # 12
    frequency:     1.8006453046

- q-position: [    0.1354167,    0.0104167,    0.0104167 ]
  weight: 24   
  band:
  - # 1
    frequency:    -0.1316341550
  - # 2
    frequency:    -0.1290178591
  - # 3
    frequency:     0.4939257438
  - # 4
    frequency:     0.7395132081
  - # 5
    frequency:     0.7395132081
  - # 6
    frequency:     0.7689323314
  - # 7
    frequency:     0.7703070377
  - # 8
    frequency:     0.8103541989
  - # 9
    frequency:     0.8103541989
  - # 10
    frequency:     1.7410589538
  - # 11
    frequency:     1.7410589538
  - # 12
    frequency:     1.7965379449

- q-position: [    0.1562500,    0.0104167,    0.0104167 ]
  weight: 24   
  band:
  - # 1
    frequency:    -0.1485876240
  - # 2
    frequency:    -0.1462356126
  - # 3
    frequency:     0.5663815451
  - # 4
    frequency:     0.7141722085
  - # 5
    frequency:     0.7141722085
  - # 6
    frequency:     0.7531059148
  - # 7
    frequency:     0.7544775426
  - # 8
    frequency:     0.8090728193
  - # 9
    frequency:     0.8090728193
  - # 10
    frequency:     1.7186486633
  - # 11
    frequency:     1.7186486633
  - # 12
    frequency:     1.7915314915

- q-position: [    0.1770833,    0.0104167,    0.0104167 ]
  weight: 24   
  band:
  - # 1
    frequency:    -0.1639763387
  - # 2
    frequency:    -0.1618095687
  - # 3
    frequency:     0.6375694364
  - # 4
    frequency:     0.6854431325
  - # 5
    frequency:     0.6854431325
  - # 6
    frequency:     0.7351854433
  - # 7
    frequency:     0.7365548296
  - # 8
    frequency:     0.8085777288
  - # 9
    frequency:     0.8085777288
  - # 10
    frequency:     1.6934140624
  - # 11
    frequency:     1.6934140624
  - # 12
    frequency:     1.7855341040

- q-position: [    0.1979167,    0.0104167,    0.0104167 ]
  weight: 24   
  band:
  - # 1
    frequency:    -0.1775807047
  - # 2
    frequency:    -0.1755427731
  - # 3
    frequency:     0.6534049043
  - # 4
    frequency:     0.6534049043
  - # 5
    frequency:     0.7073214472
  - # 6
    frequency:     0.7152345141
  - # 7
    frequency:     0.7166029766
  - # 8
    frequency:     0.8092174798
  - # 9
    frequency:     0.8092174798
  - # 10
    frequency:     1.6655048143
  - # 11
    frequency:     1.6655048143
  - # 12
    frequency:     1.7784456304

- q-position: [    0.2187500,    0.0104167,    0.0104167 ]
  weight: 24   
  band:
  - # 1
    frequency:    -0.1891638871
  - # 2
    frequency:    -0.1872115246
  - # 3
    frequency:     0.6181362592
  - # 4
    frequency:     0.6181362592
  - # 5
    frequency:     0.6933225544
  - # 6
    frequency:     0.6946919468
  - # 7
    frequency:     0.7754825971
  - # 8
    frequency:     0.8113534786
  - # 9
    frequency:     0.8113534786
  - # 10
    frequency:     1.6350885671
  - # 11
    frequency:     1.6350885671
  - # 12
    frequency:     1.7701592592

- q-position: [    0.2395833,    0.0104167,    0.0104167 ]
  weight: 24   
  band:
  - # 1
    frequency:    -0.1984667344
  - # 2
    frequency:    -0.1965641601
  - # 3
    frequency:     0.5797091597
  - # 4
    frequency:     0.5797091597
  - # 5
    frequency:     0.6695239180
  - # 6
    frequency:     0.6708966951
  - # 7
    frequency:     0.8153463869
  - # 8
    frequency:     0.8153463869
  - # 9
    frequency:     0.8419093160
  - # 10
    frequency:     1.6023507159
  - # 11
    frequency:     1.6023507159
  - # 12
    frequency:     1.7605632323

- q-position: [    0.2604167,    0.0104167,    0.0104167 ]
  weight: 24   
  band:
  - # 1
    frequency:    -0.2051987036
  - # 2
    frequency:    -0.2033137793
  - # 3
    frequency:     0.5381785821
  - # 4
    frequency:     0.5381785821
  - # 5
    frequency:     0.6439167620
  - # 6
    frequency:     0.6452960621
  - # 7
    frequency:     0.8215407640
  - # 8
    frequency:     0.8215407640
  - # 9
    frequency:     0.9064689608
  - # 10
    frequency:     1.5674941402
  - # 11
    frequency:     1.5674941402
  - # 12
    frequency:     1.7495425836

- q-position: [    0.2812500,    0.0104167,    0.0104167 ]
  weight: 24   
  band:
  - # 1
    frequency:    -0.2090228987
  - # 2
    frequency:    -0.2071239593
  - # 3
    frequency:     0.4935657091
  - # 4
    frequency:     0.4935657091
  - # 5
    frequency:     0.6165816284
  - # 6
    frequency:     0.6179713810
  - # 7
    frequency:     0.8302489408
  - # 8
    frequency:     0.8302489408
  - # 9
    frequency:     0.9690398284
  - # 10
    frequency:     1.5307389107
  - # 11
    frequency:     1.5307389107
  - # 12
    frequency:     1.7369808726

- q-position: [    0.3020833,    0.0104167,    0.0104167 ]
  weight: 24   
  band:
  - # 1
    frequency:    -0.2095311235
  - # 2
    frequency:    -0.2075836150
  - # 3
    frequency:     0.4458284003
  - # 4
    frequency:     0.4458284003
  - # 5
    frequency:     0.5875996160
  - # 6
    frequency:     0.5890046918
  - # 7
    frequency:     0.8417354614
  - # 8
    frequency:     0.8417354614
  - # 9
    frequency:     1.0295113969
  - # 10
    frequency:     1.4923219544
  - # 11
    frequency:     1.4923219544
  - # 12
    frequency:     1.7227618827

- q-position: [    0.3229167,    0.0104167,    0.0104167 ]
  weight: 24   
  band:
  - # 1
    frequency:    -0.2062002498
  - # 2
    frequency:    -0.2041620701
  - # 3
    frequency:     0.3948049912
  - # 4
    frequency:     0.3948049912
  - # 5
    frequency:     0.5570499684
  - # 6
    frequency:     0.5584763890
  - # 7
    frequency:     0.8562035989
  - # 8
    frequency:     0.8562035989
  - # 9
    frequency:     1.0877846633
  - # 10
    frequency:     1.4524966602
  - # 11
    frequency:     1.4524966602
  - # 12
    frequency:     1.7067712613

- q-position: [    0.3437500,    0.0104167,    0.0104167 ]
  weight: 24   
  band:
  - # 1
    frequency:    -0.1983099761
  - # 2
    frequency:    -0.1961233104
  - # 3
    frequency:     0.3400955962
  - # 4
    frequency:     0.3400955962
  - # 5
    frequency:     0.5250067907
  - # 6
    frequency:     0.5264620330
  - # 7
    frequency:     0.8737853479
  - # 8
    frequency:     0.8737853479
  - # 9
    frequency:     1.1437725079
  - # 10
    frequency:     1.4115323954
  - # 11
    frequency:     1.4115323954
  - # 12
    frequency:     1.6888980800

- q-position: [    0.3645833,    0.0104167,    0.0104167 ]
  weight: 24   
  band:
  - # 1
    frequency:    -0.1847699919
  - # 2
    frequency:    -0.1823437167
  - # 3
    frequency:     0.2807720889
  - # 4
    frequency:     0.2807720889
  - # 5
    frequency:     0.4915344251
  - # 6
    frequency:     0.4930278709
  - # 7
    frequency:     0.8945358844
  - # 8
    frequency:     0.8945358844
  - # 9
    frequency:     1.1974000462
  - # 10
    frequency:     1.3697138908
  - # 11
    frequency:     1.3697138908
  - # 12
    frequency:     1.6690362992

- q-position: [    0.3854167,    0.0104167,    0.0104167 ]
  weight: 24   
  band:
  - # 1
    frequency:    -0.1636920517
  - # 2
    frequency:    -0.1608538005
  - # 3
    frequency:     0.2144878035
  - # 4
    frequency:     0.2144878035
  - # 5
    frequency:     0.4566806655
  - # 6
    frequency:     0.4582242870
  - # 7
    frequency:     0.9184328602
  - # 8
    frequency:     0.9184328602
  - # 9
    frequency:     1.2486049419
  - # 10
    frequency:     1.3273404362
  - # 11
    frequency:     1.3273404362
  - # 12
    frequency:     1.6470861243

- q-position: [    0.4062500,    0.0104167,    0.0104167 ]
  weight: 24   
  band:
  - # 1
    frequency:    -0.1309917752
  - # 2
    frequency:    -0.1272989015
  - # 3
    frequency:     0.1332022822
  - # 4
    frequency:     0.1332022822
  - # 5
    frequency:     0.4204663306
  - # 6
    frequency:     0.4220757739
  - # 7
    frequency:     0.9453802110
  - # 8
    frequency:     0.9453802110
  - # 9
    frequency:     1.2847248048
  - # 10
    frequency:     1.2847248048
  - # 11
    frequency:     1.2973376666
  - # 12
    frequency:     1.6229552441

- q-position: [    0.4270833,    0.0104167,    0.0104167 ]
  weight: 24   
  band:
  - # 1
    frequency:    -0.0739593352
  - # 2
    frequency:    -0.0739593352
  - # 3
    frequency:    -0.0716278488
  - # 4
    frequency:    -0.0643559696
  - # 5
    frequency:     0.3828683415
  - # 6
    frequency:     0.3845647223
  - # 7
    frequency:     0.9752155762
  - # 8
    frequency:     0.9752155762
  - # 9
    frequency:     1.2421918115
  - # 10
    frequency:     1.2421918115
  - # 11
    frequency:     1.3435616919
  - # 12
    frequency:     1.5965599464

- q-position: [    0.4479167,    0.0104167,    0.0104167 ]
  weight: 24   
  band:
  - # 1
    frequency:    -0.1524346004
  - # 2
    frequency:    -0.1524346004
  - # 3
    frequency:     0.0967205929
  - # 4
    frequency:     0.1018878704
  - # 5
    frequency:     0.3437904031
  - # 6
    frequency:     0.3456034769
  - # 7
    frequency:     1.0077200462
  - # 8
    frequency:     1.0077200462
  - # 9
    frequency:     1.2000764296
  - # 10
    frequency:     1.2000764296
  - # 11
    frequency:     1.3872536051
  - # 12
    frequency:     1.5678261067

- q-position: [    0.4687500,    0.0104167,    0.0104167 ]
  weight: 24   
  band:
  - # 1
    frequency:    -0.1877555439
  - # 2
    frequency:    -0.1877555439
  - # 3
    frequency:     0.1622486268
  - # 4
    frequency:     0.1655014037
  - # 5
    frequency:     0.3030078893
  - # 6
    frequency:     0.3049821346
  - # 7
    frequency:     1.0426285294
  - # 8
    frequency:     1.0426285294
  - # 9
    frequency:     1.1587217272
  - # 10
    frequency:     1.1587217272
  - # 11
    frequency:     1.4284031406
  - # 12
    frequency:     1.5366900500

- q-position: [    0.4895833,    0.0104167,    0.0104167 ]
  weight: 24   
  band:
  - # 1
    frequency:    -0.2032532996
  - # 2
    frequency:    -0.2032532996
  - # 3
    frequency:     0.2139307391
  - # 4
    frequency:     0.2165057593
  - # 5
    frequency:     0.2600524687
  - # 6
    frequency:     0.2622602045
  - # 7
    frequency:     1.0796321858
  - # 8
    frequency:     1.0796321858
  - # 9
    frequency:     1.1184838649
  - # 10
    frequency:     1.1184838649
  - # 11
    frequency:     1.4670131186
  - # 12
    frequency:     1.5030992856

- q-position: [    0.0312500,    0.0312500,    0.0104167 ]
  weight: 24   
  band:
  - # 1
    frequency:    -0.0402231843
  - # 2
    frequency:     0.0443462576
  - # 3
    frequency:     0.1528284894
  - # 4
    frequency:     0.8073893774
  - # 5
    frequency:     0.8108714160
  - # 6
    frequency:     0.8108714160
  - # 7
    frequency:     0.8160618234
  - # 8
    frequency:     0.8160618234
  - # 9
    frequency:     0.8199333968
  - # 10
    frequency:     1.8034390706
  - # 11
    frequency:     1.8062202397
  - # 12
    frequency:     1.8062202397

- q-position: [    0.0520833,    0.0312500,    0.0104167 ]
  weight: 48   
  band:
  - # 1
    frequency:    -0.0590247028
  - # 2
    frequency:     0.0439088089
  - # 3
    frequency:     0.2126195373
  - # 4
    frequency:     0.7985041081
  - # 5
    frequency:     0.8033981859
  - # 6
    frequency:     0.8062662657
  - # 7
    frequency:     0.8114057348
  - # 8
    frequency:     0.8150197139
  - # 9
    frequency:     0.8203831475
  - # 10
    frequency:     1.7967524066
  - # 11
    frequency:     1.7995862390
  - # 12
    frequency:     1.8050612708

- q-position: [    0.0729167,    0.0312500,    0.0104167 ]
  weight: 48   
  band:
  - # 1
    frequency:    -0.0787797293
  - # 2
    frequency:    -0.0067428508
  - # 3
    frequency:     0.2823277869
  - # 4
    frequency:     0.7864863654
  - # 5
    frequency:     0.7923422031
  - # 6
    frequency:     0.7993799536
  - # 7
    frequency:     0.8044444151
  - # 8
    frequency:     0.8134657724
  - # 9
    frequency:     0.8199077999
  - # 10
    frequency:     1.7867699165
  - # 11
    frequency:     1.7896825623
  - # 12
    frequency:     1.8032840439

- q-position: [    0.0937500,    0.0312500,    0.0104167 ]
  weight: 48   
  band:
  - # 1
    frequency:    -0.0983830930
  - # 2
    frequency:    -0.0556514386
  - # 3
    frequency:     0.3546340826
  - # 4
    frequency:     0.7711939803
  - # 5
    frequency:     0.7776957061
  - # 6
    frequency:     0.7902378745
  - # 7
    frequency:     0.7952051270
  - # 8
    frequency:     0.8116011694
  - # 9
    frequency:     0.8188393501
  - # 10
    frequency:     1.7735485202
  - # 11
    frequency:     1.7765659098
  - # 12
    frequency:     1.8008428519

- q-position: [    0.1145833,    0.0312500,    0.0104167 ]
  weight: 48   
  band:
  - # 1
    frequency:    -0.1173462815
  - # 2
    frequency:    -0.0828973014
  - # 3
    frequency:     0.4274460183
  - # 4
    frequency:     0.7525501318
  - # 5
    frequency:     0.7594944450
  - # 6
    frequency:     0.7788733722
  - # 7
    frequency:     0.7837240403
  - # 8
    frequency:     0.8096438381
  - # 9
    frequency:     0.8175033685
  - # 10
    frequency:     1.7571639667
  - # 11
    frequency:     1.7603117354
  - # 12
    frequency:     1.7976780923

- q-position: [    0.1354167,    0.0312500,    0.0104167 ]
  weight: 48   
  band:
  - # 1
    frequency:    -0.1353465110
  - # 2
    frequency:    -0.1055458351
  - # 3
    frequency:     0.4999315086
  - # 4
    frequency:     0.7305351389
  - # 5
    frequency:     0.7377931084
  - # 6
    frequency:     0.7653272704
  - # 7
    frequency:     0.7700460936
  - # 8
    frequency:     0.8078487132
  - # 9
    frequency:     0.8162227673
  - # 10
    frequency:     1.7377107148
  - # 11
    frequency:     1.7410141244
  - # 12
    frequency:     1.7937173614

- q-position: [    0.1562500,    0.0312500,    0.0104167 ]
  weight: 48   
  band:
  - # 1
    frequency:    -0.1521171471
  - # 2
    frequency:    -0.1252662294
  - # 3
    frequency:     0.5716397967
  - # 4
    frequency:     0.7051684783
  - # 5
    frequency:     0.7126581253
  - # 6
    frequency:     0.7496472522
  - # 7
    frequency:     0.7542248362
  - # 8
    frequency:     0.8065086138
  - # 9
    frequency:     0.8153293776
  - # 10
    frequency:     1.7153017864
  - # 11
    frequency:     1.7187856432
  - # 12
    frequency:     1.7888767583

- q-position: [    0.1770833,    0.0312500,    0.0104167 ]
  weight: 48   
  band:
  - # 1
    frequency:    -0.1674110625
  - # 2
    frequency:    -0.1425238512
  - # 3
    frequency:     0.6422676986
  - # 4
    frequency:     0.6764947005
  - # 5
    frequency:     0.6841639387
  - # 6
    frequency:     0.7318870715
  - # 7
    frequency:     0.7363222519
  - # 8
    frequency:     0.8059491315
  - # 9
    frequency:     0.8151691385
  - # 10
    frequency:     1.6900685969
  - # 11
    frequency:     1.6937571645
  - # 12
    frequency:     1.7830623615

- q-position: [    0.1979167,    0.0312500,    0.0104167 ]
  weight: 48   
  band:
  - # 1
    frequency:    -0.1809844109
  - # 2
    frequency:    -0.1574165947
  - # 3
    frequency:     0.6445730137
  - # 4
    frequency:     0.6523895377
  - # 5
    frequency:     0.7115816828
  - # 6
    frequency:     0.7121055939
  - # 7
    frequency:     0.7164085382
  - # 8
    frequency:     0.8065201523
  - # 9
    frequency:     0.8161005640
  - # 10
    frequency:     1.6621607626
  - # 11
    frequency:     1.6660776676
  - # 12
    frequency:     1.7761718394

- q-position: [    0.2187500,    0.0312500,    0.0104167 ]
  weight: 48   
  band:
  - # 1
    frequency:    -0.1925865865
  - # 2
    frequency:    -0.1698787982
  - # 3
    frequency:     0.6094685109
  - # 4
    frequency:     0.6174140503
  - # 5
    frequency:     0.6903657112
  - # 6
    frequency:     0.6945617592
  - # 7
    frequency:     0.7793872532
  - # 8
    frequency:     0.8085846129
  - # 9
    frequency:     0.8184879118
  - # 10
    frequency:     1.6317458874
  - # 11
    frequency:     1.6359140163
  - # 12
    frequency:     1.7680961554

- q-position: [    0.2395833,    0.0312500,    0.0104167 ]
  weight: 48   
  band:
  - # 1
    frequency:    -0.2019512296
  - # 2
    frequency:    -0.1797484632
  - # 3
    frequency:     0.5712429628
  - # 4
    frequency:     0.5793103875
  - # 5
    frequency:     0.6667332554
  - # 6
    frequency:     0.6708671819
  - # 7
    frequency:     0.8125048578
  - # 8
    frequency:     0.8226904330
  - # 9
    frequency:     0.8455154774
  - # 10
    frequency:     1.5990093292
  - # 11
    frequency:     1.6034507114
  - # 12
    frequency:     1.7587213291

- q-position: [    0.2604167,    0.0312500,    0.0104167 ]
  weight: 48   
  band:
  - # 1
    frequency:    -0.2087854543
  - # 2
    frequency:    -0.1867880652
  - # 3
    frequency:     0.5299428408
  - # 4
    frequency:     0.5381354257
  - # 5
    frequency:     0.6412761428
  - # 6
    frequency:     0.6454159794
  - # 7
    frequency:     0.8186272043
  - # 8
    frequency:     0.8290489872
  - # 9
    frequency:     0.9098166072
  - # 10
    frequency:     1.5641539420
  - # 11
    frequency:     1.5688896173
  - # 12
    frequency:     1.7479302173

- q-position: [    0.2812500,    0.0312500,    0.0104167 ]
  weight: 48   
  band:
  - # 1
    frequency:    -0.2127545398
  - # 2
    frequency:    -0.1906817200
  - # 3
    frequency:     0.4855810547
  - # 4
    frequency:     0.4939139239
  - # 5
    frequency:     0.6140639462
  - # 6
    frequency:     0.6183029653
  - # 7
    frequency:     0.8272657100
  - # 8
    frequency:     0.8378713815
  - # 9
    frequency:     0.9721569361
  - # 10
    frequency:     1.5273997903
  - # 11
    frequency:     1.5324496546
  - # 12
    frequency:     1.7356042835

- q-position: [    0.3020833,    0.0312500,    0.0104167 ]
  weight: 48   
  band:
  - # 1
    frequency:    -0.2134578815
  - # 2
    frequency:    -0.1910119057
  - # 3
    frequency:     0.4381057154
  - # 4
    frequency:     0.4466104131
  - # 5
    frequency:     0.5851677199
  - # 6
    frequency:     0.5896233280
  - # 7
    frequency:     0.8386864925
  - # 8
    frequency:     0.8494179395
  - # 9
    frequency:     1.0324172451
  - # 10
    frequency:     1.4889838245
  - # 11
    frequency:     1.4943664479
  - # 12
    frequency:     1.7216253264

- q-position: [    0.3229167,    0.0312500,    0.0104167 ]
  weight: 48   
  band:
  - # 1
    frequency:    -0.2103881206
  - # 2
    frequency:    -0.1872067373
  - # 3
    frequency:     0.3873409779
  - # 4
    frequency:     0.3960760376
  - # 5
    frequency:     0.5546592124
  - # 6
    frequency:     0.5594689099
  - # 7
    frequency:     0.8530941237
  - # 8
    frequency:     0.8638888530
  - # 9
    frequency:     1.0904920676
  - # 10
    frequency:     1.4491595001
  - # 11
    frequency:     1.4548919102
  - # 12
    frequency:     1.7058771432

- q-position: [    0.3437500,    0.0312500,    0.0104167 ]
  weight: 48   
  band:
  - # 1
    frequency:    -0.2028556300
  - # 2
    frequency:    -0.1784285546
  - # 3
    frequency:     0.3328614529
  - # 4
    frequency:     0.3419372386
  - # 5
    frequency:     0.5226081946
  - # 6
    frequency:     0.5279247858
  - # 7
    frequency:     0.8706215174
  - # 8
    frequency:     0.8814147135
  - # 9
    frequency:     1.1462893851
  - # 10
    frequency:     1.4081963163
  - # 11
    frequency:     1.4142937380
  - # 12
    frequency:     1.6882471091

- q-position: [    0.3645833,    0.0312500,    0.0104167 ]
  weight: 48   
  band:
  - # 1
    frequency:    -0.1898331087
  - # 2
    frequency:    -0.1633162955
  - # 3
    frequency:     0.2736815452
  - # 4
    frequency:     0.2833271167
  - # 5
    frequency:     0.4890770097
  - # 6
    frequency:     0.4950661833
  - # 7
    frequency:     0.8913243146
  - # 8
    frequency:     0.9020512002
  - # 9
    frequency:     1.1997305486
  - # 10
    frequency:     1.3663792363
  - # 11
    frequency:     1.3728547765
  - # 12
    frequency:     1.6686276557

- q-position: [    0.3854167,    0.0312500,    0.0104167 ]
  weight: 48   
  band:
  - # 1
    frequency:    -0.1695819972
  - # 2
    frequency:    -0.1392590857
  - # 3
    frequency:     0.2072798299
  - # 4
    frequency:     0.2180776533
  - # 5
    frequency:     0.4541119696
  - # 6
    frequency:     0.4609546494
  - # 7
    frequency:     0.9151801267
  - # 8
    frequency:     0.9257782919
  - # 9
    frequency:     1.2507503066
  - # 10
    frequency:     1.3240079484
  - # 11
    frequency:     1.3308722117
  - # 12
    frequency:     1.6469176380

- q-position: [    0.4062500,    0.0312500,    0.0104167 ]
  weight: 48   
  band:
  - # 1
    frequency:    -0.1384940816
  - # 2
    frequency:    -0.0993393322
  - # 3
    frequency:     0.1246473239
  - # 4
    frequency:     0.1390202049
  - # 5
    frequency:     0.4177307535
  - # 6
    frequency:     0.4256316600
  - # 7
    frequency:     0.9420922786
  - # 8
    frequency:     0.9525036889
  - # 9
    frequency:     1.2813959325
  - # 10
    frequency:     1.2886565408
  - # 11
    frequency:     1.2992968711
  - # 12
    frequency:     1.6230235813

- q-position: [    0.4270833,    0.0312500,    0.0104167 ]
  weight: 48   
  band:
  - # 1
    frequency:    -0.0848715306
  - # 2
    frequency:    -0.0831195231
  - # 3
    frequency:    -0.0627822105
  - # 4
    frequency:     0.0447369747
  - # 5
    frequency:     0.3799030408
  - # 6
    frequency:     0.3891073669
  - # 7
    frequency:     0.9718970298
  - # 8
    frequency:     0.9820694687
  - # 9
    frequency:     1.2388693919
  - # 10
    frequency:     1.2465303407
  - # 11
    frequency:     1.3453319756
  - # 12
    frequency:     1.5968608030

- q-position: [    0.4479167,    0.0312500,    0.0104167 ]
  weight: 48   
  band:
  - # 1
    frequency:    -0.1548674873
  - # 2
    frequency:    -0.1478307280
  - # 3
    frequency:     0.0850847168
  - # 4
    frequency:     0.1275956230
  - # 5
    frequency:     0.3405177018
  - # 6
    frequency:     0.3513407457
  - # 7
    frequency:     1.0043725251
  - # 8
    frequency:     1.0142600963
  - # 9
    frequency:     1.1967666557
  - # 10
    frequency:     1.2048272076
  - # 11
    frequency:     1.3888308967
  - # 12
    frequency:     1.5683544080

- q-position: [    0.4687500,    0.0312500,    0.0104167 ]
  weight: 48   
  band:
  - # 1
    frequency:    -0.1881259235
  - # 2
    frequency:    -0.1846865984
  - # 3
    frequency:     0.1554799892
  - # 4
    frequency:     0.1816515775
  - # 5
    frequency:     0.2993209405
  - # 6
    frequency:     0.3122032739
  - # 7
    frequency:     1.0392451242
  - # 8
    frequency:     1.0488055162
  - # 9
    frequency:     1.1554429537
  - # 10
    frequency:     1.1638937634
  - # 11
    frequency:     1.4297824188
  - # 12
    frequency:     1.5374401557

- q-position: [    0.4895833,    0.0312500,    0.0104167 ]
  weight: 48   
  band:
  - # 1
    frequency:    -0.2023140431
  - # 2
    frequency:    -0.2012532293
  - # 3
    frequency:     0.2087763274
  - # 4
    frequency:     0.2283438043
  - # 5
    frequency:     0.2557846534
  - # 6
    frequency:     0.2714070230
  - # 7
    frequency:     1.0761495019
  - # 8
    frequency:     1.0852688536
  - # 9
    frequency:     1.1153897748
  - # 10
    frequency:     1.1241370248
  - # 11
    frequency:     1.4681887250
  - # 12
    frequency:     1.5040652030

- q-position: [    0.0520833,    0.0520833,    0.0104167 ]
  weight: 24   
  band:
  - # 1
    frequency:    -0.0734695934
  - # 2
    frequency:     0.0766559850
  - # 3
    frequency:     0.2514533623
  - # 4
    frequency:     0.7878440390
  - # 5
    frequency:     0.7989054467
  - # 6
    frequency:     0.7989054467
  - # 7
    frequency:     0.8103337561
  - # 8
    frequency:     0.8103337561
  - # 9
    frequency:     0.8228472695
  - # 10
    frequency:     1.7900667446
  - # 11
    frequency:     1.7985328142
  - # 12
    frequency:     1.7985328142

- q-position: [    0.0729167,    0.0520833,    0.0104167 ]
  weight: 48   
  band:
  - # 1
    frequency:    -0.0905096742
  - # 2
    frequency:     0.0828412106
  - # 3
    frequency:     0.3082230638
  - # 4
    frequency:     0.7742360416
  - # 5
    frequency:     0.7880255252
  - # 6
    frequency:     0.7921879228
  - # 7
    frequency:     0.8033284866
  - # 8
    frequency:     0.8087277649
  - # 9
    frequency:     0.8243159986
  - # 10
    frequency:     1.7800857144
  - # 11
    frequency:     1.7887870315
  - # 12
    frequency:     1.7969119286

- q-position: [    0.0937500,    0.0520833,    0.0104167 ]
  weight: 48   
  band:
  - # 1
    frequency:    -0.1084395656
  - # 2
    frequency:     0.0743426432
  - # 3
    frequency:     0.3736793872
  - # 4
    frequency:     0.7576648642
  - # 5
    frequency:     0.7736160345
  - # 6
    frequency:     0.7832709623
  - # 7
    frequency:     0.7940324068
  - # 8
    frequency:     0.8067919536
  - # 9
    frequency:     0.8249876572
  - # 10
    frequency:     1.7668661856
  - # 11
    frequency:     1.7758801148
  - # 12
    frequency:     1.7946755885

- q-position: [    0.1145833,    0.0520833,    0.0104167 ]
  weight: 48   
  band:
  - # 1
    frequency:    -0.1263517119
  - # 2
    frequency:     0.0531382092
  - # 3
    frequency:     0.4425558498
  - # 4
    frequency:     0.7380605676
  - # 5
    frequency:     0.7557113750
  - # 6
    frequency:     0.7721873582
  - # 7
    frequency:     0.7824837688
  - # 8
    frequency:     0.8047461561
  - # 9
    frequency:     0.8251717623
  - # 10
    frequency:     1.7504838423
  - # 11
    frequency:     1.7598868360
  - # 12
    frequency:     1.7917612733

- q-position: [    0.1354167,    0.0520833,    0.0104167 ]
  weight: 48   
  band:
  - # 1
    frequency:    -0.1436890190