   32   32    1    1
  0.1596323E+02  0.7993867E-09  0.7993867E-09  0.7993867E-09  0.5000000E-15
  1.000000000000000E-004
  CAR 
 unknown system                          
   96   40   72
 
  0.0000000E+00  0.0000000E+00  0.0000000E+00  0.4629630E-02
   1       -3.0158
   2       -0.7226
   3       -0.7188
   4       -0.7188
   5       -0.7188
   6       -0.7188
   7       -0.7149
   8        1.5338
   9        1.5383
  10        1.5383
  11        1.5400
  12        1.5402
  13        1.5402
  14        1.5402
  15        1.5402
  16        1.5404
  17        1.5421
  18        1.5421
  19        1.5466
  20        3.6236
  21        3.6236
  22        3.6236
  23        3.6236
  24        3.9241
  25        3.9241
  26        3.9242
  27        3.9242
  28        5.3453
  29        5.3453
  30        5.3453
  31        6.7410
  32        6.7411
  33        6.7411
  34        7.4565
  35        7.4565
  36        7.4609
  37        7.4609
  38        7.4611
  39        7.4611
  40        7.4611
  41        7.4611
  42        7.4613
  43        7.4613
  44        7.4657
  45        7.4657
  46        8.4561
  47        8.4604
  48        8.4604
  49        8.4604
  50        8.4604
  51        8.4647
  52        9.5807
  53        9.5807
  54        9.5823
  55        9.5848
  56        9.5849
  57        9.5849
  58        9.5849
  59        9.5849
  60        9.5851
  61        9.5875
  62        9.5891
  63        9.5891
  64        9.6414
  65        9.6426
  66        9.6426
  67        9.6427
  68        9.6427
  69        9.6437
  70       11.2023
  71       11.2037
  72       11.2053
 
  0.1666667E+00  0.0000000E+00  0.0000000E+00  0.9259259E-02
   1       -2.9514
   2       -1.4165
   3       -0.6555
   4       -0.6555
   5       -0.6555
   6       -0.6555
   7        0.1008
   8        0.8540
   9        0.8540
  10        0.8540
  11        0.8541
  12        1.6024
  13        1.6024
  14        1.6024
  15        1.6024
  16        2.3461
  17        2.3461
  18        2.3461
  19        2.3461
  20        3.0808
  21        3.0808
  22        3.0808
  23        3.0808
  24        4.4732
  25        4.5858
  26        4.5858
  27        4.5858
  28        4.5858
  29        5.4039
  30        5.4039
  31        6.6183
  32        6.6183
  33        6.6183
  34        6.6183
  35        6.8026
  36        6.8027
  37        6.8136
  38        6.8136
  39        7.5200
  40        7.5200
  41        7.5200
  42        7.5200
  43        7.7238
  44        8.1638
  45        8.1638
  46        8.2271
  47        8.2271
  48        8.8010
  49        8.8010
  50        8.8010
  51        8.8011
  52        8.9023
  53        8.9023
  54        8.9024
  55        8.9025
  56        8.9354
  57        8.9354
  58        8.9355
  59        8.9355
  60       10.0487
  61       10.0487
  62       10.2135
  63       10.2135
  64       10.2135
  65       10.2135
  66       10.3531
  67       10.3531
  68       10.3531
  69       10.3531
  70       10.5476
  71       10.5476
  72       10.5476
 
  0.3333333E+00  0.0000000E+00  0.0000000E+00  0.9259259E-02
   1       -2.7586
   2       -1.9900
   3       -0.4660
   4       -0.4659
   5       -0.4659
   6       -0.4659
   7        0.2899
   8        0.2899
   9        0.2899
  10        0.2899
  11        1.0393
  12        1.7889
  13        1.7889
  14        1.7889
  15        1.7889
  16        2.5312
  17        2.5312
  18        2.5312
  19        2.5312
  20        3.2494
  21        3.2683
  22        3.2683
  23        3.2683
  24        3.2684
  25        5.4322
  26        5.4322
  27        5.4322
  28        5.4322
  29        5.4909
  30        5.4909
  31        5.4909
  32        5.4909
  33        5.5799
  34        5.5799
  35        6.2845
  36        6.2845
  37        6.9861
  38        6.9861
  39        7.6313
  40        7.6313
  41        7.6313
  42        7.6313
  43        7.6940
  44        7.6940
  45        7.6968
  46        7.6968
  47        7.6968
  48        7.6968
  49        8.4043
  50        8.4043
  51        8.4043
  52        8.4043
  53        9.1121
  54        9.1121
  55        9.2241
  56        9.2241
  57        9.2241
  58        9.2241
  59        9.2794
  60       10.0003
  61       10.0003
  62       10.0003
  63       10.0003
  64       10.8435
  65       10.8435
  66       11.2370
  67       11.2370
  68       11.2399
  69       11.2399
  70       11.2405
  71       11.2405
  72       11.5867
 
  0.5000000E+00  0.0000000E+00  0.0000000E+00  0.4629630E-02
   1       -2.4393
   2       -2.4363
   3       -0.1546
   4       -0.1514
   5       -0.1514
   6       -0.1505
   7       -0.1504
   8       -0.1496
   9       -0.1496
  10       -0.1464
  11        2.0900
  12        2.0923
  13        2.0973
  14        2.0977
  15        2.0977
  16        2.0986
  17        2.0995
  18        2.1003
  19        2.1003
  20        2.1028
  21        4.3003
  22        4.3003
  23        4.3005
  24        4.3010
  25        4.3014
  26        4.3019
  27        4.3020
  28        4.3020
  29        5.8717
  30        5.8717
  31        5.8749
  32        5.8749
  33        6.5105
  34        6.5105
  35        6.5109
  36        6.5114
  37        6.5116
  38        6.5121
  39        6.5125
  40        6.5125
  41        7.2852
  42        7.2863
  43        7.2881
  44        7.2892
  45        7.9891
  46        7.9891
  47        7.9900
  48        7.9914
  49        7.9916
  50        7.9930
  51        7.9939
  52        7.9939
  53        9.5608
  54        9.5618
  55        9.5618
  56        9.5619
  57        9.5642
  58        9.5644
  59        9.5644
  60        9.5653
  61       10.1147
  62       10.1147
  63       10.1169
  64       10.1169
  65       10.9884
  66       10.9897
  67       11.7745
  68       11.7749
  69       11.7763
  70       11.7767
  71       12.2439
  72       12.2457
 
  0.0000000E+00  0.1666667E+00  0.0000000E+00  0.1851852E-01
   1       -2.9514
   2       -1.4165
   3       -0.6585
   4       -0.6555
   5       -0.6555
   6       -0.6525
   7        0.1008
   8        0.8511
   9        0.8540
  10        0.8541
  11        0.8570
  12        1.6003
  13        1.6013
  14        1.6036
  15        1.6046
  16        2.3431
  17        2.3461
  18        2.3461
  19        2.3491
  20        3.0787
  21        3.0796
  22        3.0820
  23        3.0830
  24        4.4732
  25        4.5837
  26        4.5846
  27        4.5870
  28        4.5880
  29        5.4039
  30        5.4039
  31        6.6150
  32        6.6183
  33        6.6183
  34        6.6215
  35        6.8025
  36        6.8026
  37        6.8136
  38        6.8138
  39        7.5172
  40        7.5200
  41        7.5200
  42        7.5228
  43        7.7238
  44        8.1638
  45        8.1638
  46        8.2271
  47        8.2272
  48        8.7985
  49        8.7999
  50        8.8022
  51        8.8036
  52        8.8997
  53        8.9024
  54        8.9024
  55        8.9050
  56        8.9326
  57        8.9354
  58        8.9355
  59        8.9383
  60       10.0487
  61       10.0487
  62       10.2118
  63       10.2135
  64       10.2135
  65       10.2153
  66       10.3502
  67       10.3531
  68       10.3531
  69       10.3560
  70       10.5454
  71       10.5476
  72       10.5489
 
  0.1666667E+00  0.1666667E+00  0.0000000E+00  0.3703704E-01
   1       -2.8871
   2       -1.3541
   3       -1.3516
   4       -0.5923
   5       -0.5923
   6        0.1620
   7        0.1640
   8        0.1658
   9        0.9149
  10        0.9158
  11        0.9174
  12        0.9183
  13        1.6636
  14        1.6646
  15        2.4054
  16        2.4066
  17        2.4079
  18        2.4079
  19        2.4092
  20        2.4104
  21        3.1468
  22        3.7424
  23        3.7424
  24        4.0495
  25        4.0495
  26        4.5330
  27        4.5339
  28        5.3711
  29        5.3711
  30        5.4626
  31        5.9689
  32        5.9714
  33        6.5555
  34        6.5555
  35        6.8309
  36        6.8309
  37        6.8637
  38        6.8711
  39        6.8739
  40        7.3486
  41        7.3506
  42        7.7829
  43        7.7838
  44        8.1438
  45        8.1448
  46        8.1463
  47        8.1473
  48        8.2839
  49        8.2862
  50        8.2885
  51        8.4034
  52        8.4050
  53        9.0163
  54        9.0189
  55        9.5723
  56        9.5734
  57        9.5737
  58        9.5747
  59        9.6064
  60        9.6065
  61        9.7022
  62        9.7041
  63        9.8886
  64       10.2086
  65       10.2093
  66       10.4904
  67       10.4904
  68       10.8538
  69       10.8560
  70       11.1215
  71       11.3122
  72       11.3124
 
  0.3333333E+00  0.1666667E+00  0.0000000E+00  0.3703704E-01
   1       -2.6944
   2       -1.9262
   3       -1.1623
   4       -0.4041
   5       -0.4028
   6       -0.4013
   7        0.3510
   8        0.3527
   9        0.3539
  10        1.1006
  11        1.1035
  12        1.1041
  13        1.1052
  14        1.8512
  15        1.8512
  16        2.5912
  17        2.5930
  18        2.5932
  19        3.3105
  20        3.3246
  21        3.3248
  22        3.3296
  23        3.3300
  24        4.0625
  25        4.7139
  26        4.7708
  27        4.8286
  28        4.8286
  29        5.4338
  30        5.4861
  31        5.4861
  32        5.6386
  33        6.2019
  34        6.2769
  35        6.2769
  36        6.3433
  37        6.8971
  38        6.8971
  39        6.9708
  40        6.9709
  41        7.0449
  42        7.0490
  43        7.6084
  44        7.6084
  45        7.6786
  46        7.7558
  47        7.9608
  48        8.4093
  49        8.4093
  50        8.4464
  51        8.4632
  52        8.6017
  53        8.6358
  54        9.1696
  55        9.1730
  56        9.3366
  57        9.3423
  58        9.8711
  59       10.1117
  60       10.1117
  61       10.4603
  62       10.4611
  63       10.4623
  64       10.5897
  65       10.7625
  66       10.9032
  67       10.9032
  68       10.9225
  69       11.0649
  70       11.2969
  71       11.6733
  72       11.6870
 
  0.5000000E+00  0.1666667E+00  0.0000000E+00  0.1851852E-01
   1       -2.3752
   2       -2.3723
   3       -0.8467
   4       -0.8438
   5       -0.0896
   6       -0.0884
   7       -0.0866
   8       -0.0854
   9        0.6642
  10        0.6672
  11        1.4139
  12        1.4151
  13        1.4169
  14        1.4180
  15        2.1534
  16        2.1547
  17        2.8981
  18        2.8993
  19        2.9011
  20        2.9023
  21        3.6302
  22        3.6315
  23        4.3599
  24        4.3604
  25        4.3612
  26        4.3616
  27        5.0129
  28        5.0160
  29        5.0857
  30        5.0869
  31        5.8471
  32        5.8473
  33        5.8485
  34        5.8486
  35        5.9305
  36        5.9337
  37        7.1888
  38        7.1901
  39        7.1919
  40        7.1931
  41        7.2932
  42        7.2935
  43        7.2946
  44        7.2949
  45        7.3360
  46        7.3389
  47        7.3418
  48        7.3450
  49        8.2495
  50        8.2524
  51        8.7566
  52        8.7599
  53        8.9111
  54        8.9140
  55        9.3684
  56        9.3702
  57       10.1738
  58       10.1761
  59       10.3060
  60       10.3092
  61       10.4659
  62       10.4667
  63       10.4691
  64       10.4698
  65       11.0415
  66       11.0427
  67       11.4591
  68       11.4592
  69       11.4609
  70       11.4610
  71       11.5938
  72       11.5962
 
  0.0000000E+00  0.3333333E+00  0.0000000E+00  0.1851852E-01
   1       -2.7586
   2       -1.9900
   3       -0.4689
   4       -0.4659
   5       -0.4659
   6       -0.4630
   7        0.2869
   8        0.2899
   9        0.2899
  10        0.2929
  11        1.0393
  12        1.7868
  13        1.7877
  14        1.7901
  15        1.7911
  16        2.5291
  17        2.5301
  18        2.5324
  19        2.5334
  20        3.2494
  21        3.2653
  22        3.2683
  23        3.2683
  24        3.2714
  25        5.4290
  26        5.4322
  27        5.4322
  28        5.4353
  29        5.4887
  30        5.4897
  31        5.4921
  32        5.4932
  33        5.5799
  34        5.5799
  35        6.2845
  36        6.2845
  37        6.9861
  38        6.9861
  39        7.6289
  40        7.6301
  41        7.6326
  42        7.6337
  43        7.6932
  44        7.6940
  45        7.6940
  46        7.6968
  47        7.6976
  48        7.6996
  49        8.4015
  50        8.4043
  51        8.4043
  52        8.4072
  53        9.1120
  54        9.1120
  55        9.2217
  56        9.2241
  57        9.2241
  58        9.2265
  59        9.2794
  60        9.9980
  61       10.0003
  62       10.0003
  63       10.0027
  64       10.8434
  65       10.8435
  66       11.2368
  67       11.2376
  68       11.2377
  69       11.2399
  70       11.2399
  71       11.2428
  72       11.5873
 
  0.1666667E+00  0.3333333E+00  0.0000000E+00  0.3703704E-01
   1       -2.6944
   2       -1.9262
   3       -1.1623
   4       -0.4041
   5       -0.4028
   6       -0.4013
   7        0.3510
   8        0.3527
   9        0.3539
  10        1.1008
  11        1.1029
  12        1.1041
  13        1.1056
  14        1.8512
  15        1.8512
  16        2.5906
  17        2.5930
  18        2.5938
  19        3.3105
  20        3.3250
  21        3.3250
  22        3.3295
  23        3.3296
  24        4.0625
  25        4.7140
  26        4.7708
  27        4.8286
  28        4.8286
  29        5.4337
  30        5.4861
  31        5.4861
  32        5.6386
  33        6.2019
  34        6.2769
  35        6.2769
  36        6.3433
  37        6.8971
  38        6.8971
  39        6.9708
  40        6.9708
  41        7.0449
  42        7.0490
  43        7.6084
  44        7.6084
  45        7.6786
  46        7.7558
  47        7.9608
  48        8.4093
  49        8.4093
  50        8.4464
  51        8.4632
  52        8.6017
  53        8.6358
  54        9.1705
  55        9.1722
  56        9.3366
  57        9.3422
  58        9.8711
  59       10.1117
  60       10.1118
  61       10.4611
  62       10.4611
  63       10.4615
  64       10.5897
  65       10.7625
  66       10.9032
  67       10.9032
  68       10.9225
  69       11.0649
  70       11.2969
  71       11.6733
  72       11.6826
 
  0.3333333E+00  0.3333333E+00  0.0000000E+00  0.3703704E-01
   1       -2.5019
   2       -1.7360
   3       -1.7336
   4       -0.9719
   5       -0.2135
   6       -0.2135
   7        0.5393
   8        0.5402
   9        0.5418
  10        0.5427
  11        1.2873
  12        1.2896
  13        1.2914
  14        1.2922
  15        2.0343
  16        2.0353
  17        3.4936
  18        3.4945
  19        3.5104
  20        3.5112
  21        3.5128
  22        3.5138
  23        4.0985
  24        4.0985
  25        4.2243
  26        4.2268
  27        4.4229
  28        4.4229
  29        4.9691
  30        5.5164
  31        5.5164
  32        5.8146
  33        5.8644
  34        5.8644
  35        6.4287
  36        6.4297
  37        6.4312
  38        6.4323
  39        6.5183
  40        6.5210
  41        7.0379
  42        7.0399
  43        7.1792
  44        7.1792
  45        7.2147
  46        7.2257
  47        8.1214
  48        8.1227
  49        8.7987
  50        9.3005
  51        9.3016
  52        9.3018
  53        9.3029
  54        9.3225
  55        9.3470
  56        9.3499
  57        9.5050
  58        9.5062
  59       10.0567
  60       10.0571
  61       10.0586
  62       10.0597
  63       11.2173
  64       11.2180
  65       11.3644
  66       11.3644
  67       11.4043
  68       11.4043
  69       11.4739
  70       11.4759
  71       11.6093
  72       11.6097
 
  0.5000000E+00  0.3333333E+00  0.0000000E+00  0.1851852E-01
   1       -2.1832
   2       -2.1803
   3       -1.4179
   4       -1.4150
   5        0.0993
   6        0.1005
   7        0.1022
   8        0.1034
   9        0.8521
  10        0.8533
  11        0.8551
  12        0.8562
  13        1.5987
  14        1.6017
  15        2.3390
  16        2.3402
  17        3.0785
  18        3.0798
  19        3.7979
  20        3.8009
  21        3.8093
  22        3.8107
  23        3.8123
  24        3.8137
  25        4.5347
  26        4.5353
  27        4.5359
  28        4.5364
  29        5.3092
  30        5.3093
  31        5.3105
  32        5.3106
  33        5.9763
  34        5.9774
  35        6.0144
  36        6.0154
  37        6.0174
  38        6.0184
  39        6.1067
  40        6.1098
  41        6.8121
  42        6.8153
  43        7.4312
  44        7.4336
  45        8.1909
  46        8.1911
  47        8.1923
  48        8.1926
  49        8.3077
  50        8.3088
  51        8.3788
  52        8.3815
  53        9.6423
  54        9.6455
  55        9.7712
  56        9.7742
  57       10.3029
  58       10.3030
  59       10.3046
  60       10.3047
  61       10.3514
  62       10.3537
  63       11.0615
  64       11.0638
  65       11.0662
  66       11.0694
  67       11.1920
  68       11.1929
  69       11.7699
  70       11.7730
  71       11.9448
  72       11.9483
 
  0.0000000E+00  0.5000000E+00  0.0000000E+00  0.9259259E-02
   1       -2.4378
   2       -2.4378
   3       -0.1559
   4       -0.1511
   5       -0.1505
   6       -0.1505
   7       -0.1505
   8       -0.1505
   9       -0.1499
  10       -0.1451
  11        2.0908
  12        2.0920
  13        2.0962
  14        2.0969
  15        2.0985
  16        2.0988
  17        2.0993
  18        2.0997
  19        2.1012
  20        2.1032
  21        4.2978
  22        4.2984
  23        4.3012
  24        4.3012
  25        4.3012
  26        4.3012
  27        4.3040
  28        4.3045
  29        5.8733
  30        5.8733
  31        5.8733
  32        5.8734
  33        6.5084
  34        6.5100
  35        6.5102
  36        6.5104
  37        6.5126
  38        6.5129
  39        6.5130
  40        6.5146
  41        7.2871
  42        7.2872
  43        7.2872
  44        7.2872
  45        7.9864
  46        7.9910
  47        7.9915
  48        7.9915
  49        7.9915
  50        7.9916
  51        7.9920
  52        7.9966
  53        9.5588
  54        9.5625
  55        9.5630
  56        9.5631
  57        9.5631
  58        9.5631
  59        9.5636
  60        9.5672
  61       10.1158
  62       10.1158
  63       10.1158
  64       10.1158
  65       10.9891
  66       10.9891
  67       11.7755
  68       11.7756
  69       11.7756
  70       11.7756
  71       12.2444
  72       12.2455
 
  0.1666667E+00  0.5000000E+00  0.0000000E+00  0.1851852E-01
   1       -2.3738
   2       -2.3738
   3       -0.8453
   4       -0.8452
   5       -0.0875
   6       -0.0875
   7       -0.0875
   8       -0.0875
   9        0.6657
  10        0.6657
  11        1.4160
  12        1.4160
  13        1.4160
  14        1.4160
  15        2.1541
  16        2.1541
  17        2.9002
  18        2.9002
  19        2.9002
  20        2.9002
  21        3.6308
  22        3.6308
  23        4.3608
  24        4.3608
  25        4.3608
  26        4.3608
  27        5.0144
  28        5.0144
  29        5.0863
  30        5.0863
  31        5.8478
  32        5.8479
  33        5.8479
  34        5.8479
  35        5.9321
  36        5.9321
  37        7.1909
  38        7.1910
  39        7.1910
  40        7.1910
  41        7.2940
  42        7.2940
  43        7.2941
  44        7.2941
  45        7.3374
  46        7.3375
  47        7.3434
  48        7.3435
  49        8.2509
  50        8.2509
  51        8.7582
  52        8.7583
  53        8.9125
  54        8.9125
  55        9.3693
  56        9.3693
  57       10.1750
  58       10.1750
  59       10.3075
  60       10.3076
  61       10.4679
  62       10.4679
  63       10.4679
  64       10.4679
  65       11.0421
  66       11.0421
  67       11.4600
  68       11.4600
  69       11.4600
  70       11.4601
  71       11.5950
  72       11.5950
 
  0.3333333E+00  0.5000000E+00  0.0000000E+00  0.1851852E-01
   1       -2.1818
   2       -2.1818
   3       -1.4164
   4       -1.4164
   5        0.1013
   6        0.1014
   7        0.1014
   8        0.1014
   9        0.8542
  10        0.8542
  11        0.8542
  12        0.8542
  13        1.6002
  14        1.6002
  15        2.3396
  16        2.3396
  17        3.0791
  18        3.0791
  19        3.7994
  20        3.7994
  21        3.8115
  22        3.8115
  23        3.8115
  24        3.8115
  25        4.5355
  26        4.5356
  27        4.5356
  28        4.5356
  29        5.3099
  30        5.3099
  31        5.3099
  32        5.3099
  33        5.9769
  34        5.9769
  35        6.0163
  36        6.0164
  37        6.0164
  38        6.0164
  39        6.1083
  40        6.1083
  41        6.8137
  42        6.8137
  43        7.4324
  44        7.4324
  45        8.1917
  46        8.1917
  47        8.1917
  48        8.1917
  49        8.3083
  50        8.3083
  51        8.3802
  52        8.3802
  53        9.6439
  54        9.6439
  55        9.7727
  56        9.7727
  57       10.3037
  58       10.3038
  59       10.3038
  60       10.3038
  61       10.3526
  62       10.3526
  63       11.0627
  64       11.0627
  65       11.0678
  66       11.0678
  67       11.1925
  68       11.1925
  69       11.7714
  70       11.7714
  71       11.9461
  72       11.9463
 
  0.5000000E+00  0.5000000E+00  0.0000000E+00  0.9259259E-02
   1       -1.8650
   2       -1.8626
   3       -1.8621
   4       -1.8597
   5        0.4118
   6        0.4139
   7        0.4152
   8        0.4154
   9        0.4157
  10        0.4159
  11        0.4172
  12        0.4193
  13        2.6443
  14        2.6461
  15        2.6478
  16        2.6482
  17        2.6483
  18        2.6486
  19        2.6504
  20        2.6522
  21        4.6880
  22        4.6896
  23        4.6904
  24        4.6910
  25        4.6910
  26        4.6916
  27        4.6924
  28        4.6939
  29        5.0332
  30        5.0336
  31        5.0344
  32        5.0354
  33        5.0354
  34        5.0364
  35        5.0373
  36        5.0376
  37        6.3991
  38        6.4018
  39        6.4023
  40        6.4050
  41        6.9265
  42        6.9272
  43        6.9285
  44        6.9293
  45        8.0111
  46        8.0124
  47        8.0133
  48        8.0146
  49        9.1972
  50        9.1981
  51        9.1983
  52        9.1985
  53        9.1995
  54        9.1998
  55        9.2000
  56        9.2009
  57       10.6427
  58       10.6465
  59       10.6481
  60       10.6484
  61       10.6485
  62       10.6488
  63       10.6504
  64       10.6542
  65       11.3632
  66       11.3650
  67       11.3666
  68       11.3667
  69       11.3670
  70       11.3671
  71       11.3688
  72       11.3705
 
  0.0000000E+00  0.1666667E+00  0.1666667E+00  0.1851852E-01
   1       -2.8871
   2       -1.3529
   3       -1.3529
   4       -0.5940
   5       -0.5906
   6        0.1637
   7        0.1637
   8        0.1644
   9        0.9139
  10        0.9159
  11        0.9173
  12        0.9193
  13        1.6641
  14        1.6641
  15        2.4050
  16        2.4064
  17        2.4072
  18        2.4086
  19        2.4095
  20        2.4108
  21        3.1468
  22        3.7424
  23        3.7424
  24        4.0495
  25        4.0495
  26        4.5334
  27        4.5334
  28        5.3693
  29        5.3728
  30        5.4626
  31        5.9701
  32        5.9701
  33        6.5555
  34        6.5555
  35        6.8309
  36        6.8309
  37        6.8635
  38        6.8725
  39        6.8727
  40        7.3496
  41        7.3496
  42        7.7833
  43        7.7834
  44        8.1426
  45        8.1447
  46        8.1464
  47        8.1484
  48        8.2861
  49        8.2861
  50        8.2864
  51        8.4042
  52        8.4042
  53        9.0176
  54        9.0176
  55        9.5713
  56        9.5720
  57        9.5751
  58        9.5758
  59        9.6063
  60        9.6063
  61        9.7031
  62        9.7032
  63        9.8886
  64       10.2089
  65       10.2089
  66       10.4904
  67       10.4905
  68       10.8549
  69       10.8549
  70       11.1215
  71       11.3122
  72       11.3122
 
  0.1666667E+00  0.1666667E+00  0.1666667E+00  0.3703704E-01
   1       -2.8228
   2       -1.2911
   3       -1.2893
   4       -1.2876
   5        0.2233
   6        0.2263
   7        0.2265
   8        0.2273
   9        0.2274
  10        0.2305
  11        1.7230
  12        1.7251
  13        1.7260
  14        1.7263
  15        1.7272
  16        1.7275
  17        1.7299
  18        3.2017
  19        3.2026
  20        3.2032
  21        3.2066
  22        3.2082
  23        3.2100
  24        4.5930
  25        4.5936
  26        4.5943
  27        4.7071
  28        4.7078
  29        4.7085
  30        6.0221
  31        6.0236
  32        6.0250
  33        6.0250
  34        6.0265
  35        6.0280
  36        6.1579
  37        7.4682
  38        7.4686
  39        7.4702
  40        7.4702
  41        7.4717
  42        7.4721
  43        7.4881
  44        7.4899
  45        7.4917
  46        7.8415
  47        7.8422
  48        7.8429
  49        8.9167
  50        8.9176
  51        8.9188
  52        8.9188
  53        8.9200
  54        8.9209
  55        9.2697
  56        9.2708
  57        9.2719
  58        9.2719
  59        9.2730
  60        9.2741
  61       10.3439
  62       10.3448
  63       10.3458
  64       10.7930
  65       10.7939
  66       10.7948
  67       10.9415
  68       10.9422
  69       10.9433
  70       10.9433
  71       10.9444
  72       10.9451
 
  0.3333333E+00  0.1666667E+00  0.1666667E+00  0.3703704E-01
   1       -2.6302
   2       -1.8623
   3       -1.0988
   4       -1.0988
   5       -0.3395
   6       -0.3395
   7        0.4149
   8        0.4149
   9        0.4157
  10        1.1628
  11        1.1659
  12        1.1665
  13        1.1675
  14        1.9126
  15        1.9126
  16        2.6519
  17        2.6525
  18        2.6547
  19        2.6553
  20        3.3718
  21        3.3909
  22        3.9798
  23        4.1223
  24        4.1223
  25        4.2989
  26        4.7740
  27        4.7740
  28        4.8300
  29        4.8301
  30        5.4926
  31        5.4926
  32        5.6117
  33        5.6117
  34        6.0935
  35        6.0935
  36        6.3104
  37        6.4111
  38        6.4111
  39        6.9535
  40        6.9536
  41        7.0611
  42        7.6608
  43        7.6609
  44        7.7500
  45        7.7500
  46        8.0160
  47        8.0160
  48        8.2679
  49        8.2679
  50        8.3816
  51        8.3816
  52        8.8706
  53        8.8706
  54        9.1853
  55        9.3917
  56        9.5116
  57        9.5116
  58        9.8073
  59        9.8073
  60       10.2544
  61       10.2545
  62       10.5242
  63       10.5242
  64       10.5450
  65       10.5450
  66       11.2307
  67       11.2307
  68       11.3613
  69       11.3613
  70       11.6541
  71       11.6543
  72       11.7563
 
  0.5000000E+00  0.1666667E+00  0.1666667E+00  0.1851852E-01
   1       -2.3112
   2       -2.3083
   3       -0.7844
   4       -0.7824
   5       -0.7815
   6       -0.7795
   7        0.7256
   8        0.7278
   9        0.7279
  10        0.7288
  11        0.7300
  12        0.7314
  13        2.2146
  14        2.2162
  15        2.2211
  16        2.2213
  17        2.2237
  18        2.2246
  19        3.6892
  20        3.6908
  21        3.6912
  22        3.6921
  23        3.6922
  24        3.6930
  25        5.0724
  26        5.0728
  27        5.0755
  28        5.0758
  29        5.1396
  30        5.1398
  31        5.1408
  32        5.1410
  33        5.1877
  34        5.1891
  35        6.5397
  36        6.5417
  37        6.5427
  38        6.5447
  39        6.6302
  40        6.6309
  41        6.6316
  42        6.6323
  43        7.9606
  44        7.9613
  45        7.9637
  46        7.9644
  47        8.0737
  48        8.0752
  49        8.2843
  50        8.2850
  51        8.2872
  52        8.2879
  53        9.4452
  54        9.4458
  55        9.4469
  56        9.4474
  57        9.8263
  58        9.8272
  59        9.8293
  60        9.8302
  61       10.8061
  62       10.8067
  63       10.8079
  64       10.8085
  65       11.0832
  66       11.0842
  67       11.1833
  68       11.1855
  69       11.1865
  70       11.1888
  71       12.1863
  72       12.2254
 
  0.0000000E+00  0.3333333E+00  0.1666667E+00  0.3703704E-01
   1       -2.6944
   2       -1.9262
   3       -1.1623
   4       -0.4049
   5       -0.4027
   6       -0.4005
   7        0.3504
   8        0.3524
   9        0.3548
  10        1.1008
  11        1.1029
  12        1.1036
  13        1.1061
  14        1.8495
  15        1.8529
  16        2.5909
  17        2.5918
  18        2.5947
  19        3.3105
  20        3.3234
  21        3.3267
  22        3.3278
  23        3.3311
  24        4.0625
  25        4.7140
  26        4.7708
  27        4.8269
  28        4.8303
  29        5.4338
  30        5.4844
  31        5.4878
  32        5.6386
  33        6.2019
  34        6.2751
  35        6.2787
  36        6.3433
  37        6.8953
  38        6.8989
  39        6.9690
  40        6.9726
  41        7.0447
  42        7.0492
  43        7.6065
  44        7.6102
  45        7.6786
  46        7.7558
  47        7.9608
  48        8.4075
  49        8.4111
  50        8.4464
  51        8.4632
  52        8.6017
  53        8.6358
  54        9.1711
  55        9.1715
  56        9.3366
  57        9.3422
  58        9.8711
  59       10.1104