 running on    8 nodes
 distr:  one band on    1 nodes,    8 groups
 vasp.4.6.28 25Jul05 complex 
 POSCAR found :  1 types and   32 ions

 ----------------------------------------------------------------------------- 
|                                                                             |
|  ADVICE TO THIS USER RUNNING 'VASP/VAMP'   (HEAR YOUR MASTER'S VOICE ...):  |
|                                                                             |
|      You have a (more or less) 'large supercell' and for larger cells       |
|      it might be more efficient to use real space projection operators      |
|      So try LREAL= Auto  in the INCAR   file.                               |
|      Mind: If you want to do an extremely accurate calculations keep the    |
|      reciprocal projection scheme          (i.e. LREAL=.FALSE.)             |
|                                                                             |
 ----------------------------------------------------------------------------- 

 LDA part: xc-table for Pade appr. of Perdew
 generate k-points for:   7   7   7
 POSCAR, INCAR and KPOINTS ok, starting setup
 FFT: planning ...           1
 reading WAVECAR
 WARNING: random wavefunctions but no delay for mixing, default for NELMDL
 entering main loop
       N       E                     dE             d eps       ncg     rms          rms(c)
DAV:   1     0.141040197328E+03    0.14104E+03   -0.33829E+04  5760   0.106E+03
DAV:   2    -0.103873663654E+03   -0.24491E+03   -0.22786E+03  6816   0.148E+02
DAV:   3    -0.116981044002E+03   -0.13107E+02   -0.12550E+02  7056   0.279E+01
DAV:   4    -0.117204217172E+03   -0.22317E+00   -0.22157E+00  6744   0.384E+00
DAV:   5    -0.117206776514E+03   -0.25593E-02   -0.25578E-02  6704   0.467E-01    0.568E+00
DAV:   6    -0.116705315424E+03    0.50146E+00   -0.29685E-02  6680   0.540E-01    0.354E+00
DAV:   7    -0.116345053122E+03    0.36026E+00   -0.96187E-02  6264   0.892E-01    0.134E-01
DAV:   8    -0.116345263834E+03   -0.21071E-03   -0.10479E-03  6984   0.132E-01    0.524E-02
DAV:   9    -0.116345295410E+03   -0.31576E-04   -0.67121E-05  6584   0.217E-02    0.487E-03
DAV:  10    -0.116345298436E+03   -0.30257E-05   -0.39988E-06  7000   0.641E-03    0.208E-03
DAV:  11    -0.116345297602E+03    0.83384E-06   -0.25610E-07  6736   0.157E-03    0.822E-04
DAV:  12    -0.116345297266E+03    0.33639E-06   -0.16932E-08  4280   0.453E-04    0.146E-04
DAV:  13    -0.116345297165E+03    0.10099E-06   -0.27997E-09  3760   0.199E-04    0.290E-05
DAV:  14    -0.116345297154E+03    0.10840E-07   -0.44638E-10  3784   0.715E-05    0.101E-05
DAV:  15    -0.116345297149E+03    0.46505E-08   -0.90924E-11  3728   0.360E-05
   1 F= -.11634530E+03 E0= -.11634525E+03  d E =-.940674E-04
