   32   32    1    1
  0.1410542E+02  0.7670882E-09  0.7670882E-09  0.7670882E-09  0.5000000E-15
  1.000000000000000E-004
  CAR 
 unknown system                          
   96   40   72
 
  0.0000000E+00  0.0000000E+00  0.0000000E+00  0.2915452E-02
   1       -2.5256
   2       -0.0424
   3       -0.0382
   4       -0.0382
   5       -0.0382
   6       -0.0382
   7       -0.0341
   8        2.3901
   9        2.3946
  10        2.3946
  11        2.3965
  12        2.3968
  13        2.3968
  14        2.3968
  15        2.3968
  16        2.3970
  17        2.3989
  18        2.3989
  19        2.4034
  20        4.5016
  21        4.5016
  22        4.5016
  23        4.5016
  24        5.1324
  25        5.1324
  26        5.1324
  27        5.1324
  28        6.4350
  29        6.4350
  30        6.4351
  31        8.0622
  32        8.0623
  33        8.0623
  34        8.6881
  35        8.6881
  36        8.6929
  37        8.6929
  38        8.6931
  39        8.6931
  40        8.6931
  41        8.6931
  42        8.6933
  43        8.6933
  44        8.6981
  45        8.6981
  46        9.6051
  47        9.6098
  48        9.6098
  49        9.6098
  50        9.6098
  51        9.6145
  52       10.9629
  53       10.9629
  54       10.9642
  55       10.9671
  56       10.9673
  57       10.9673
  58       10.9673
  59       10.9673
  60       10.9675
  61       10.9704
  62       10.9717
  63       10.9717
  64       11.7774
  65       11.7788
  66       11.7788
  67       11.7788
  68       11.7788
  69       11.7803
  70       12.9758
  71       12.9785
  72       12.9798
 
  0.1428571E+00  0.0000000E+00  0.0000000E+00  0.5830904E-02
   1       -2.4743
   2       -0.6930
   3        0.0119
   4        0.0120
   5        0.0120
   6        0.0120
   7        0.7125
   8        1.7560
   9        1.7560
  10        1.7560
  11        1.7560
  12        2.4458
  13        2.4458
  14        2.4458
  15        2.4458
  16        3.1310
  17        3.1310
  18        3.1310
  19        3.1310
  20        4.1134
  21        4.1134
  22        4.1134
  23        4.1134
  24        5.6140
  25        5.6140
  26        5.6140
  27        5.6140
  28        5.7157
  29        6.4810
  30        6.4810
  31        7.9709
  32        7.9709
  33        7.9709
  34        7.9709
  35        8.0929
  36        8.0929
  37        8.1087
  38        8.1088
  39        8.7394
  40        8.7394
  41        8.7394
  42        8.7394
  43        8.8670
  44        9.3865
  45        9.3865
  46        9.4546
  47        9.4546
  48       10.1176
  49       10.1176
  50       10.1176
  51       10.1177
  52       10.3538
  53       10.3538
  54       10.3543
  55       10.3545
  56       10.3631
  57       10.3632
  58       10.3637
  59       10.3637
  60       11.6650
  61       11.6650
  62       11.6650
  63       11.6650
  64       12.0191
  65       12.0191
  66       12.1274
  67       12.1274
  68       12.1274
  69       12.1274
  70       12.3612
  71       12.3612
  72       12.3612
 
  0.2857143E+00  0.0000000E+00  0.0000000E+00  0.5830904E-02
   1       -2.3206
   2       -1.2500
   3        0.1625
   4        0.1625
   5        0.1625
   6        0.1625
   7        1.2107
   8        1.2108
   9        1.2108
  10        1.2108
  11        1.5569
  12        2.5928
  13        2.5928
  14        2.5928
  15        2.5928
  16        3.6076
  17        3.6076
  18        3.6076
  19        3.6076
  20        3.9557
  21        3.9557
  22        3.9557
  23        3.9557
  24        4.6025
  25        6.3990
  26        6.3990
  27        6.3990
  28        6.3990
  29        6.6189
  30        6.6189
  31        6.9066
  32        6.9066
  33        6.9066
  34        6.9066
  35        7.5855
  36        7.5855
  37        8.2468
  38        8.2468
  39        8.8784
  40        8.8784
  41        8.8784
  42        8.8784
  43        9.1223
  44        9.1223
  45        9.3160
  46        9.3160
  47        9.3160
  48        9.3160
  49        9.8523
  50        9.8523
  51        9.8523
  52        9.8523
  53       10.1731
  54       10.1731
  55       10.2362
  56       10.6021
  57       10.6021
  58       10.6021
  59       10.6021
  60       11.8245
  61       11.8245
  62       11.8245
  63       11.8245
  64       12.4562
  65       12.4562
  66       12.4562
  67       12.4562
  68       12.6038
  69       12.6039
  70       13.0798
  71       13.0822
  72       13.1087
 
  0.4285714E+00  0.0000000E+00  0.0000000E+00  0.5830904E-02
   1       -2.0648
   2       -1.7076
   3        0.4129
   4        0.4129
   5        0.4129
   6        0.4129
   7        0.7627
   8        0.7627
   9        0.7627
  10        0.7627
  11        2.4916
  12        2.8369
  13        2.8369
  14        2.8369
  15        2.8369
  16        3.1766
  17        3.1766
  18        3.1766
  19        3.1766
  20        3.5111
  21        4.8664
  22        4.8664
  23        4.8664
  24        4.8664
  25        5.8555
  26        5.8555
  27        5.8555
  28        5.8555
  29        6.8488
  30        6.8488
  31        7.1709
  32        7.1709
  33        7.2928
  34        7.2928
  35        7.2928
  36        7.2928
  37        8.2723
  38        8.2723
  39        8.2723
  40        8.2723
  41        8.4716
  42        8.4716
  43        8.7721
  44        8.7721
  45        9.1101
  46        9.1101
  47        9.1101
  48        9.1101
  49        9.4347
  50        9.4347
  51        9.4347
  52        9.4347
  53       10.9742
  54       10.9742
  55       10.9742
  56       10.9742
  57       11.0523
  58       11.0523
  59       11.3665
  60       11.3665
  61       11.3665
  62       11.3665
  63       11.7539
  64       12.0229
  65       12.0229
  66       13.3407
  67       13.3407
  68       13.3407
  69       13.3407
  70       13.3638
  71       13.3647
  72       13.3704
 
  0.0000000E+00  0.1428571E+00  0.0000000E+00  0.1166181E-01
   1       -2.4743
   2       -0.6930
   3        0.0088
   4        0.0120
   5        0.0120
   6        0.0151
   7        0.7125
   8        1.7528
   9        1.7560
  10        1.7560
  11        1.7592
  12        2.4436
  13        2.4445
  14        2.4472
  15        2.4480
  16        3.1277
  17        3.1310
  18        3.1310
  19        3.1342
  20        4.1113
  21        4.1121
  22        4.1146
  23        4.1154
  24        5.6119
  25        5.6127
  26        5.6152
  27        5.6160
  28        5.7157
  29        6.4810
  30        6.4810
  31        7.9673
  32        7.9709
  33        7.9709
  34        7.9744
  35        8.0928
  36        8.0928
  37        8.1087
  38        8.1088
  39        8.7364
  40        8.7394
  41        8.7394
  42        8.7424
  43        8.8670
  44        9.3865
  45        9.3865
  46        9.4546
  47        9.4546
  48       10.1145
  49       10.1177
  50       10.1177
  51       10.1208
  52       10.3515
  53       10.3527
  54       10.3556
  55       10.3569
  56       10.3603
  57       10.3631
  58       10.3636
  59       10.3664
  60       11.6618
  61       11.6650
  62       11.6650
  63       11.6681
  64       12.0191
  65       12.0191
  66       12.1260
  67       12.1274
  68       12.1274
  69       12.1287
  70       12.3598
  71       12.3612
  72       12.3622
 
  0.1428571E+00  0.1428571E+00  0.0000000E+00  0.2332362E-01
   1       -2.4230
   2       -0.6439
   3       -0.6412
   4        0.0622
   5        0.0622
   6        0.7611
   7        0.7637
   8        1.1114
   9        1.8035
  10        1.8046
  11        1.8062
  12        1.8072
  13        2.4944
  14        2.4952
  15        3.1777
  16        3.1787
  17        3.1804
  18        3.1814
  19        3.5108
  20        3.5108
  21        3.8595
  22        4.5952
  23        4.5952
  24        5.2310
  25        5.2310
  26        5.7623
  27        5.7630
  28        6.3043
  29        6.3044
  30        6.5269
  31        7.3860
  32        7.3886
  33        7.8414
  34        7.8414
  35        8.1375
  36        8.1406
  37        8.1544
  38        8.2616
  39        8.2616
  40        8.5893
  41        8.5917
  42        8.9116
  43        8.9124
  44        9.4313
  45        9.4344
  46        9.7437
  47        9.7447
  48        9.7463
  49        9.7474
  50        9.7600
  51        9.8708
  52        9.8728
  53       10.1243
  54       10.1273
  55       10.6531
  56       10.6531
  57       11.0543
  58       11.0549
  59       11.0558
  60       11.0569
  61       11.0592
  62       11.0610
  63       11.7478
  64       12.1871
  65       12.1879
  66       12.3634
  67       12.3796
  68       12.3798
  69       12.5306
  70       12.5327
  71       13.0574
  72       13.0596
 
  0.2857143E+00  0.1428571E+00  0.0000000E+00  0.2332362E-01
   1       -2.2694
   2       -1.1992
   3       -0.4912
   4        0.2126
   5        0.2126
   6        0.5630
   7        0.9119
   8        1.2604
   9        1.2604
  10        1.6064
  11        1.9527
  12        1.9535
  13        1.9541
  14        2.9816
  15        2.9816
  16        3.3242
  17        3.3248
  18        3.3256
  19        4.0034
  20        4.0034
  21        4.3047
  22        4.3047
  23        4.6504
  24        4.6770
  25        5.8062
  26        5.8062
  27        5.9034
  28        6.3065
  29        6.6648
  30        6.8819
  31        6.9324
  32        6.9324
  33        7.1073
  34        7.1073
  35        7.5768
  36        7.6317
  37        8.2620
  38        8.2620
  39        8.2778
  40        8.2894
  41        8.7033
  42        8.7033
  43        8.9578
  44        9.0455
  45        9.2300
  46        9.2300
  47        9.2499
  48        9.5722
  49        9.8702
  50        9.8832
  51       10.0214
  52       10.0214
  53       10.1370
  54       10.2196
  55       10.2786
  56       10.5481
  57       10.9834
  58       11.2188
  59       11.2559
  60       11.2559
  61       11.8479
  62       11.8479
  63       11.8501
  64       12.4967
  65       12.5065
  66       12.5299
  67       12.5299
  68       12.6932
  69       12.8127
  70       13.1267
  71       13.1560
  72       13.1924
 
  0.4285714E+00  0.1428571E+00  0.0000000E+00  0.2332362E-01
   1       -2.0137
   2       -1.6567
   3       -0.2393
   4        0.1124
   5        0.4629
   6        0.4630
   7        0.8125
   8        0.8125
   9        1.1607
  10        1.5082
  11        2.1997
  12        2.1997
  13        2.5400
  14        2.5430
  15        2.5437
  16        3.5593
  17        3.5655
  18        3.5658
  19        3.8976
  20        3.8976
  21        4.2430
  22        4.9124
  23        4.9124
  24        5.2416
  25        5.5779
  26        5.8972
  27        5.8972
  28        6.1375
  29        6.4642
  30        6.5520
  31        6.6811
  32        6.6812
  33        6.8948
  34        7.2170
  35        7.6581
  36        7.6581
  37        8.0031
  38        8.0031
  39        8.4834
  40        8.4834
  41        8.5056
  42        8.5090
  43        8.7760
  44        8.8087
  45        8.8087
  46        8.8330
  47        8.9809
  48        8.9809
  49        9.2622
  50        9.5488
  51        9.8044
  52       10.1297
  53       10.4202
  54       10.5606
  55       10.7767
  56       11.0990
  57       11.4787
  58       11.5587
  59       11.6711
  60       11.6711
  61       11.7920
  62       12.0220
  63       12.0696
  64       12.0726
  65       12.0727
  66       12.7292
  67       12.7292
  68       12.7337
  69       13.3987
  70       13.4279
  71       13.6951
  72       13.6981
 
  0.0000000E+00  0.2857143E+00  0.0000000E+00  0.1166181E-01
   1       -2.3206
   2       -1.2500
   3        0.1593
   4        0.1625
   5        0.1625
   6        0.1656
   7        1.2076
   8        1.2108
   9        1.2108
  10        1.2139
  11        1.5569
  12        2.5906
  13        2.5915
  14        2.5941
  15        2.5950
  16        3.6055
  17        3.6063
  18        3.6090
  19        3.6098
  20        3.9524
  21        3.9557
  22        3.9557
  23        3.9589
  24        4.6025
  25        6.3968
  26        6.3977
  27        6.4004
  28        6.4012
  29        6.6189
  30        6.6189
  31        6.9032
  32        6.9066
  33        6.9066
  34        6.9101
  35        7.5855
  36        7.5856
  37        8.2468
  38        8.2468
  39        8.8753
  40        8.8784
  41        8.8784
  42        8.8814
  43        9.1223
  44        9.1223
  45        9.3135
  46        9.3146
  47        9.3174
  48        9.3185
  49        9.8492
  50        9.8523
  51        9.8523
  52        9.8554
  53       10.1730
  54       10.1730
  55       10.2362
  56       10.5992
  57       10.6021
  58       10.6021
  59       10.6050
  60       11.8217
  61       11.8245
  62       11.8245
  63       11.8272
  64       12.4530
  65       12.4562
  66       12.4562
  67       12.4594
  68       12.6038
  69       12.6039
  70       13.0804
  71       13.0815
  72       13.1098
 
  0.1428571E+00  0.2857143E+00  0.0000000E+00  0.2332362E-01
   1       -2.2694
   2       -1.1992
   3       -0.4912
   4        0.2126
   5        0.2126
   6        0.5630
   7        0.9119
   8        1.2604
   9        1.2604
  10        1.6064
  11        1.9520
  12        1.9535
  13        1.9548
  14        2.9816
  15        2.9816
  16        3.3235
  17        3.3248
  18        3.3263
  19        4.0034
  20        4.0034
  21        4.3047
  22        4.3047
  23        4.6504
  24        4.6770
  25        5.8062
  26        5.8062
  27        5.9034
  28        6.3064
  29        6.6648
  30        6.8819
  31        6.9324
  32        6.9324
  33        7.1073
  34        7.1073
  35        7.5768
  36        7.6317
  37        8.2619
  38        8.2620
  39        8.2779
  40        8.2895
  41        8.7033
  42        8.7033
  43        8.9578
  44        9.0455
  45        9.2299
  46        9.2300
  47        9.2500
  48        9.5722
  49        9.8702
  50        9.8833
  51       10.0214
  52       10.0214
  53       10.1370
  54       10.2196
  55       10.2786
  56       10.5481
  57       10.9833
  58       11.2188
  59       11.2559
  60       11.2559
  61       11.8471
  62       11.8479
  63       11.8509
  64       12.4967
  65       12.5063
  66       12.5299
  67       12.5301
  68       12.6932
  69       12.8127
  70       13.1267
  71       13.1561
  72       13.1930
 
  0.2857143E+00  0.2857143E+00  0.0000000E+00  0.2332362E-01
   1       -2.1159
   2       -1.0485
   3       -1.0458
   4        0.0120
   5        0.3629
   6        0.3629
   7        1.4075
   8        1.4085
   9        1.4102
  10        1.4111
  11        1.7535
  12        1.7561
  13        2.4449
  14        2.4449
  15        2.7876
  16        2.7885
  17        4.1438
  18        4.1448
  19        4.1465
  20        4.1475
  21        4.7934
  22        4.7942
  23        4.8762
  24        4.8762
  25        5.4845
  26        5.5244
  27        5.5245
  28        5.7895
  29        5.7922
  30        6.8028
  31        6.8372
  32        6.8372
  33        7.4496
  34        7.4496
  35        7.7686
  36        7.7716
  37        7.9121
  38        7.9122
  39        8.1838
  40        8.1849
  41        8.1866
  42        8.1877
  43        8.2577
  44        8.2602
  45        8.4120
  46        8.7407
  47        9.7724
  48        9.7738
  49       10.3577
  50       10.3608
  51       10.4028
  52       10.4040
  53       10.6992
  54       10.8160
  55       10.8170
  56       10.8176
  57       10.8185
  58       11.0415
  59       11.0445
  60       11.3365
  61       11.3383
  62       11.5074
  63       12.2313
  64       12.2313
  65       13.0120
  66       13.0127
  67       13.2474
  68       13.2478
  69       13.2673
  70       13.2692
  71       13.6950
  72       13.6969
 
  0.4285714E+00  0.2857143E+00  0.0000000E+00  0.2332362E-01
   1       -1.8606
   2       -1.5040
   3       -0.7941
   4       -0.4407
   5        0.6129
   6        0.6129
   7        0.9620
   8        0.9620
   9        1.6569
  10        1.6570
  11        2.0013
  12        2.0026
  13        2.0030
  14        2.3464
  15        2.6878
  16        3.7051
  17        3.7114
  18        4.3789
  19        4.3789
  20        4.6863
  21        4.6863
  22        4.7170
  23        5.0324
  24        5.0479
  25        5.0479
  26        5.3652
  27        6.0087
  28        6.0087
  29        6.1870
  30        6.1870
  31        6.3700
  32        7.0329
  33        7.1437
  34        7.1437
  35        7.3145
  36        7.3553
  37        7.4641
  38        7.4641
  39        7.7674
  40        7.7674
  41        8.0010
  42        8.3245
  43        8.5863
  44        8.6675
  45        8.8061
  46        8.8061
  47        9.7806
  48        9.7806
  49        9.8355
  50        9.9541
  51       10.2740
  52       10.5495
  53       10.5921
  54       10.6010
  55       10.8435
  56       10.9181
  57       11.2391
  58       11.7003
  59       11.7003
  60       11.9008
  61       12.0373
  62       12.2104
  63       12.2200
  64       12.6643
  65       12.6643
  66       12.7004
  67       12.8844
  68       12.8844
  69       13.1946
  70       13.3496
  71       13.3498
  72       13.4983
 
  0.0000000E+00  0.4285714E+00  0.0000000E+00  0.1166181E-01
   1       -2.0648
   2       -1.7076
   3        0.4097
   4        0.4129
   5        0.4129
   6        0.4161
   7        0.7595
   8        0.7627
   9        0.7627
  10        0.7659
  11        2.4916
  12        2.8348
  13        2.8356
  14        2.8383
  15        2.8391
  16        3.1744
  17        3.1753
  18        3.1779
  19        3.1788
  20        3.5111
  21        4.8631
  22        4.8664
  23        4.8664
  24        4.8697
  25        5.8521
  26        5.8555
  27        5.8555
  28        5.8589
  29        6.8488
  30        6.8488
  31        7.1709
  32        7.1710
  33        7.2905
  34        7.2914
  35        7.2942
  36        7.2951
  37        8.2699
  38        8.2709
  39        8.2737
  40        8.2747
  41        8.4716
  42        8.4716
  43        8.7721
  44        8.7721
  45        9.1070
  46        9.1101
  47        9.1101
  48        9.1131
  49        9.4316
  50        9.4347
  51        9.4347
  52        9.4378
  53       10.9713
  54       10.9742
  55       10.9742
  56       10.9769
  57       11.0523
  58       11.0524
  59       11.3637
  60       11.3665
  61       11.3665
  62       11.3692
  63       11.7539
  64       12.0228
  65       12.0229
  66       13.3375
  67       13.3405
  68       13.3407
  69       13.3439
  70       13.3647
  71       13.3649
  72       13.3695
 
  0.1428571E+00  0.4285714E+00  0.0000000E+00  0.2332362E-01
   1       -2.0137
   2       -1.6567
   3       -0.2393
   4        0.1124
   5        0.4629
   6        0.4630
   7        0.8125
   8        0.8125
   9        1.1608
  10        1.5082
  11        2.1997
  12        2.1997
  13        2.5405
  14        2.5430
  15        2.5432
  16        3.5596
  17        3.5655
  18        3.5656
  19        3.8976
  20        3.8976
  21        4.2429
  22        4.9124
  23        4.9124
  24        5.2416
  25        5.5779
  26        5.8972
  27        5.8972
  28        6.1375
  29        6.4642
  30        6.5520
  31        6.6811
  32        6.6812
  33        6.8948
  34        7.2170
  35        7.6581
  36        7.6581
  37        8.0031
  38        8.0031
  39        8.4833
  40        8.4833
  41        8.5057
  42        8.5091
  43        8.7760
  44        8.8086
  45        8.8087
  46        8.8331
  47        8.9809
  48        8.9809
  49        9.2622
  50        9.5488
  51        9.8044
  52       10.1297
  53       10.4202
  54       10.5606
  55       10.7767
  56       11.0990
  57       11.4787
  58       11.5587
  59       11.6711
  60       11.6711
  61       11.7920
  62       12.0220
  63       12.0695
  64       12.0726
  65       12.0728
  66       12.7287
  67       12.7292
  68       12.7342
  69       13.3988
  70       13.4278
  71       13.6950
  72       13.6963
 
  0.2857143E+00  0.4285714E+00  0.0000000E+00  0.2332362E-01
   1       -1.8606
   2       -1.5040
   3       -0.7941
   4       -0.4407
   5        0.6129
   6        0.6129
   7        0.9620
   8        0.9620
   9        1.6570
  10        1.6570
  11        2.0007
  12        2.0026
  13        2.0036
  14        2.3465
  15        2.6878
  16        3.7051
  17        3.7113
  18        4.3789
  19        4.3789
  20        4.6862
  21        4.6863
  22        4.7170
  23        5.0323
  24        5.0479
  25        5.0480
  26        5.3652
  27        6.0087
  28        6.0087
  29        6.1870
  30        6.1870
  31        6.3700
  32        7.0329
  33        7.1437
  34        7.1437
  35        7.3145
  36        7.3552
  37        7.4641
  38        7.4641
  39        7.7674
  40        7.7674
  41        8.0010
  42        8.3245
  43        8.5863
  44        8.6674
  45        8.8061
  46        8.8061
  47        9.7806
  48        9.7806
  49        9.8355
  50        9.9541
  51       10.2739
  52       10.5495
  53       10.5921
  54       10.6010
  55       10.8435
  56       10.9181
  57       11.2391
  58       11.7003
  59       11.7003
  60       11.9008
  61       12.0373
  62       12.2104
  63       12.2199
  64       12.6642
  65       12.6643
  66       12.7005
  67       12.8844
  68       12.8844
  69       13.1946
  70       13.3496
  71       13.3496
  72       13.4719
 
  0.4285714E+00  0.4285714E+00  0.0000000E+00  0.2332362E-01
   1       -1.6058
   2       -1.2513
   3       -1.2487
   4       -0.8953
   5        0.8624
   6        0.8624
   7        1.2089
   8        1.2099
   9        1.2116
  10        1.2126
  11        1.5580
  12        1.5580
  13        2.9311
  14        2.9338
  15        3.2736
  16        3.2744
  17        3.9467
  18        3.9475
  19        4.2835
  20        4.2862
  21        5.2541
  22        5.2549
  23        5.2568
  24        5.2576
  25        5.3443
  26        5.3444
  27        5.9990
  28        5.9990
  29        6.0060
  30        6.0060
  31        6.6599
  32        6.6600
  33        6.7454
  34        6.7466
  35        6.7481
  36        6.7494
  37        7.2250
  38        7.2632
  39        7.5843
  40        7.5873
  41        7.9088
  42        8.0793
  43        8.0819
  44        8.5705
  45        9.6499
  46        9.6512
  47        9.6967
  48        9.6967
  49        9.7888
  50        9.8794
  51       10.6661
  52       10.6671
  53       10.6677
  54       10.6686
  55       11.4710
  56       11.4742
  57       11.6342
  58       11.6342
  59       11.7986
  60       11.8005
  61       12.0557
  62       12.0573
  63       12.1745
  64       12.1775
  65       12.4439
  66       12.4458
  67       12.7714
  68       12.7746
  69       13.2740
  70       13.2758
  71       13.5049
  72       13.5079
 
  0.0000000E+00  0.1428571E+00  0.1428571E+00  0.1166181E-01
   1       -2.4230
   2       -0.6425
   3       -0.6425
   4        0.0604
   5        0.0639
   6        0.7624
   7        0.7624
   8        1.1114
   9        1.8027
  10        1.8046
  11        1.8062
  12        1.8081
  13        2.4948
  14        2.4948
  15        3.1768
  16        3.1787
  17        3.1803
  18        3.1823
  19        3.5091
  20        3.5125
  21        3.8595
  22        4.5952
  23        4.5952
  24        5.2309
  25        5.2310
  26        5.7626
  27        5.7626
  28        6.3026
  29        6.3061
  30        6.5270
  31        7.3873
  32        7.3873
  33        7.8414
  34        7.8414
  35        8.1390
  36        8.1391
  37        8.1545
  38        8.2616
  39        8.2616
  40        8.5905
  41        8.5905
  42        8.9120
  43        8.9120
  44        9.4329
  45        9.4329
  46        9.7423
  47        9.7446
  48        9.7465
  49        9.7485
  50        9.7602
  51        9.8718
  52        9.8718
  53       10.1258
  54       10.1258
  55       10.6531
  56       10.6531
  57       11.0528
  58       11.0537
  59       11.0571
  60       11.0573
  61       11.0601
  62       11.0612
  63       11.7478
  64       12.1875
  65       12.1875
  66       12.3635
  67       12.3796
  68       12.3797
  69       12.5316
  70       12.5316
  71       13.0543
  72       13.0603
 
  0.1428571E+00  0.1428571E+00  0.1428571E+00  0.2332362E-01
   1       -2.3718
   2       -0.5939
   3       -0.5920
   4       -0.5902
   5        0.8104
   6        0.8123
   7        0.8141
   8        1.1593
   9        1.1611
  10        1.1630
  11        2.5408
  12        2.5425
  13        2.5438
  14        2.5438
  15        2.5451
  16        2.5468
  17        2.8840
  18        3.9053
  19        3.9073
  20        3.9092
  21        4.2084
  22        4.2089
  23        4.2095
  24        5.7099
  25        5.7105
  26        5.7111
  27        5.8090
  28        5.8096
  29        5.8101
  30        7.0135
  31        7.4169
  32        7.4185
  33        7.4200
  34        7.4200
  35        7.4216
  36        7.4231
  37        8.7529
  38        8.7533
  39        8.7551
  40        8.7551
  41        8.7569
  42        8.7573
  43        8.9554
  44        8.9560
  45        8.9566
  46        9.1360
  47        9.1379
  48        9.1398
  49       10.4436
  50       10.4447
  51       10.4460
  52       10.4460
  53       10.4473
  54       10.4483
  55       10.4897
  56       10.4918
  57       10.4927
  58       10.4928
  59       10.4939
  60       10.4959
  61       11.7559
  62       11.7571
  63       11.7583
  64       12.4538
  65       12.4550
  66       12.4562
  67       12.6441
  68       12.6444
  69       12.6455
  70       12.6455
  71       12.6466
  72       12.6469
 
  0.2857143E+00  0.1428571E+00  0.1428571E+00  0.2332362E-01
   1       -2.2182
   2       -1.1485
   3       -0.4408
   4       -0.4407
   5        0.6130
   6        0.6130
   7        0.9617
   8        0.9617
   9        1.3102
  10        1.6559
  11        2.0026
  12        2.0026
  13        2.3467
  14        2.6906
  15        2.6906
  16        3.3735
  17        3.3735
  18        3.7042
  19        3.7042
  20        4.0498
  21        4.6982
  22        4.7231
  23        4.7231
  24        4.7826
  25        5.4270
  26        5.9501
  27        5.9501
  28        6.3483
  29        6.3483
  30        6.4942
  31        6.4943
  32        6.9250
  33        6.9251
  34        7.3852
  35        7.3852
  36        7.8191
  37        7.8945
  38        7.8946
  39        8.0927
  40        8.6246
  41        8.6246
  42        8.9285
  43        8.9286
  44        9.0855
  45        9.0855
  46        9.3901
  47        9.3902
  48        9.4081
  49        9.4082
  50        9.9290
  51        9.9290
  52       10.2676
  53       10.2676
  54       10.3190
  55       10.7266
  56       10.8225
  57       10.8225
  58       11.2377
  59       11.2377
  60       11.4896
  61       11.4896
  62       11.9305
  63       11.9305
  64       12.5466
  65       12.5469
  66       12.5495
  67       12.5499
  68       13.0877
  69       13.0877
  70       13.2035
  71       13.2042
  72       13.2603
 
  0.4285714E+00  0.1428571E+00  0.1428571E+00  0.2332362E-01
   1       -1.9626
   2       -1.6058
   3       -0.1890
   4       -0.1890
   5        0.1626
   6        0.1626
   7        1.2104
   8        1.2104
   9        1.5571
  10        1.5577
  11        1.5586
  12        1.9040
  13        2.5897
  14        2.9344
  15        2.9344
  16        3.2737
  17        3.2737
  18        3.6082
  19        4.2833
  20        4.2905
  21        4.2905
  22        4.5915
  23        5.2874
  24        5.2874
  25        5.6197
  26        5.6197
  27        6.0912
  28        6.1839
  29        6.1839
  30        6.5097
  31        6.5097
  32        6.5760
  33        6.5760
  34        7.0493
  35        7.3870
  36        7.3870
  37        7.9027
  38        7.9028
  39        8.2086
  40        8.2087
  41        8.3654
  42        8.3654
  43        8.7139
  44        9.1722
  45        9.1722
  46        9.2891
  47        9.2891
  48        9.5045
  49        9.5046
  50        9.5143
  51        9.5143
  52        9.6893
  53       10.6536
  54       10.6536
  55       11.1280
  56       11.1280
  57       11.4899
  58       11.4899
  59       11.5354
  60       11.5354
  61       11.8239
  62       12.1182
  63       12.1182
  64       12.2098
  65       12.2098
  66       12.7130
  67       12.7131
  68       13.0827
  69       13.0827
  70       13.3956
  71       13.4306
  72       13.4306
 
  0.0000000E+00  0.2857143E+00  0.1428571E+00  0.2332362E-01
   1       -2.2694
   2       -1.1992
   3       -0.4912
   4        0.2109
   5        0.2143
   6        0.5630
   7        0.9119
   8        1.2587
   9        1.2622
  10        1.6064
  11        1.9516
  12        1.9533
  13        1.9554
  14        2.9798
  15        2.9833
  16        3.3229
  17        3.3250
  18        3.3267
  19        4.0016
  20        4.0051
  21        4.3031
  22        4.3063
  23        4.6504
  24        4.6770
  25        5.8045
  26        5.8078
  27        5.9034
  28        6.3064
  29        6.6649
  30        6.8819
  31        6.9307
  32        6.9341
  33        7.1055
  34        7.1092
  35        7.5767
  36        7.6317
  37        8.2601
  38        8.2638
  39        8.2779
  40        8.2895
  41        8.7014
  42        8.7053
  43        8.9578
  44        9.0455
  45        9.2279
  46        9.2320
  47        9.2500
  48        9.5722
  49        9.8702
  50        9.8832
  51       10.0194
  52       10.0234
  53       10.1370
  54       10.2196
  55       10.2787
  56       10.5482
  57       10.9833
  58       11.2187
  59       11.2550