<?xml version="1.0" encoding="ISO-8859-1"?>
<modeling>
 <generator>
  <i name="program" type="string">vasp</i>
  <i name="version" type="string">4.6.28 </i>
  <i name="subversion" type="string">25Jul05 complex  parallel</i>
  <i name="platform" type="string">LinuxIFC</i>
  <i name="date" type="string">2016 10 19</i>
  <i name="time" type="string">17:39:04</i>
 </generator>
 <incar>
  <i type="string" name="PREC">accurate</i>
  <i type="int" name="IALGO">    38</i>
  <i name="EDIFF">      0.00000001</i>
  <i type="int" name="IBRION">    -1</i>
  <i name="ENCUT">    500.00000000</i>
  <i type="logical" name="LREAL"> F  </i>
  <i type="int" name="ISMEAR">     0</i>
  <i name="SIGMA">      0.01000000</i>
  <i type="logical" name="LWAVE"> F  </i>
  <i type="logical" name="LCHARG"> F  </i>
 </incar>
 <kpoints>
  <generation param="Auto">
   <i name="subdivisionlength">     50.00000000</i>
   <v type="int" name="divisions">       7       7       7</v>
   <v name="usershift">      0.00000000      0.00000000      0.00000000</v>
   <v name="genvec1">      0.14285714      0.00000000      0.00000000</v>
   <v name="genvec2">      0.00000000      0.14285714      0.00000000</v>
   <v name="genvec3">      0.00000000      0.00000000      0.14285714</v>
   <v name="shift">      0.00000000      0.00000000      0.00000000</v>
  </generation>
  <varray name="kpointlist" >
   <v>       0.00000000      0.00000000      0.00000000</v>
   <v>       0.14285714      0.00000000      0.00000000</v>
   <v>       0.28571429      0.00000000      0.00000000</v>
   <v>       0.42857143      0.00000000      0.00000000</v>
   <v>       0.00000000      0.14285714      0.00000000</v>
   <v>       0.14285714      0.14285714      0.00000000</v>
   <v>       0.28571429      0.14285714      0.00000000</v>
   <v>       0.42857143      0.14285714      0.00000000</v>
   <v>       0.00000000      0.28571429      0.00000000</v>
   <v>       0.14285714      0.28571429      0.00000000</v>
   <v>       0.28571429      0.28571429      0.00000000</v>
   <v>       0.42857143      0.28571429      0.00000000</v>
   <v>       0.00000000      0.42857143      0.00000000</v>
   <v>       0.14285714      0.42857143      0.00000000</v>
   <v>       0.28571429      0.42857143      0.00000000</v>
   <v>       0.42857143      0.42857143      0.00000000</v>
   <v>       0.00000000      0.14285714      0.14285714</v>
   <v>       0.14285714      0.14285714      0.14285714</v>
   <v>       0.28571429      0.14285714      0.14285714</v>
   <v>       0.42857143      0.14285714      0.14285714</v>
   <v>       0.00000000      0.28571429      0.14285714</v>
   <v>       0.14285714      0.28571429      0.14285714</v>
   <v>       0.28571429      0.28571429      0.14285714</v>
   <v>       0.42857143      0.28571429      0.14285714</v>
   <v>       0.00000000      0.42857143      0.14285714</v>
   <v>       0.14285714      0.42857143      0.14285714</v>
   <v>       0.28571429      0.42857143      0.14285714</v>
   <v>       0.42857143      0.42857143      0.14285714</v>
   <v>       0.00000000      0.28571429      0.28571429</v>
   <v>       0.14285714      0.28571429      0.28571429</v>
   <v>       0.28571429      0.28571429      0.28571429</v>
   <v>       0.42857143      0.28571429      0.28571429</v>
   <v>       0.00000000      0.42857143      0.28571429</v>
   <v>       0.14285714      0.42857143      0.28571429</v>
   <v>       0.28571429      0.42857143      0.28571429</v>
   <v>       0.42857143      0.42857143      0.28571429</v>
   <v>       0.00000000      0.42857143      0.42857143</v>
   <v>       0.14285714      0.42857143      0.42857143</v>
   <v>       0.28571429      0.42857143      0.42857143</v>
   <v>       0.42857143      0.42857143      0.42857143</v>
  </varray>
  <varray name="weights" >
   <v>       0.00291545</v>
   <v>       0.00583090</v>
   <v>       0.00583090</v>
   <v>       0.00583090</v>
   <v>       0.01166181</v>
   <v>       0.02332362</v>
   <v>       0.02332362</v>
   <v>       0.02332362</v>
   <v>       0.01166181</v>
   <v>       0.02332362</v>
   <v>       0.02332362</v>
   <v>       0.02332362</v>
   <v>       0.01166181</v>
   <v>       0.02332362</v>
   <v>       0.02332362</v>
   <v>       0.02332362</v>
   <v>       0.01166181</v>
   <v>       0.02332362</v>
   <v>       0.02332362</v>
   <v>       0.02332362</v>
   <v>       0.02332362</v>
   <v>       0.04664723</v>
   <v>       0.04664723</v>
   <v>       0.04664723</v>
   <v>       0.02332362</v>
   <v>       0.04664723</v>
   <v>       0.04664723</v>
   <v>       0.04664723</v>
   <v>       0.01166181</v>
   <v>       0.02332362</v>
   <v>       0.02332362</v>
   <v>       0.02332362</v>
   <v>       0.02332362</v>
   <v>       0.04664723</v>
   <v>       0.04664723</v>
   <v>       0.04664723</v>
   <v>       0.01166181</v>
   <v>       0.02332362</v>
   <v>       0.02332362</v>
   <v>       0.02332362</v>
  </varray>
 </kpoints>
 <parameters>
  <separator name="general" >
   <i type="string" name="SYSTEM">unknown system</i>
   <i type="logical" name="LCOMPAT"> F  </i>
  </separator>
  <separator name="electronic" >
   <i type="string" name="PREC">accura</i>
   <i name="ENMAX">    500.00000000</i>
   <i name="ENAUG">    291.05200000</i>
   <i name="EDIFF">      0.00000001</i>
   <i type="int" name="IALGO">    38</i>
   <i type="int" name="IWAVPR">    10</i>
   <i type="int" name="NBANDS">    65</i>
   <i name="NELECT">     96.00000000</i>
   <separator name="electronic smearing" >
    <i type="int" name="ISMEAR">     0</i>
    <i name="SIGMA">      0.01000000</i>
   </separator>
   <separator name="electronic projectors" >
    <i type="logical" name="LREAL"> F  </i>
    <v name="ROPT">      0.00000000</v>
    <i type="int" name="LMAXPAW">  -100</i>
    <i type="int" name="LMAXMIX">     2</i>
   </separator>
   <separator name="electronic startup" >
    <i type="int" name="ISTART">     0</i>
    <i type="int" name="ICHARG">     2</i>
    <i type="int" name="INIWAV">     1</i>
   </separator>
   <separator name="electronic spin" >
    <i type="int" name="ISPIN">     1</i>
    <i type="logical" name="LNONCOLLINEAR"> F  </i>
    <v name="MAGMOM">      1.00000000      1.00000000      1.00000000      1.00000000      1.00000000      1.00000000      1.00000000      1.00000000      1.00000000      1.00000000      1.00000000      1.00000000      1.00000000      1.00000000      1.00000000      1.00000000      1.00000000      1.00000000      1.00000000      1.00000000
      1.00000000      1.00000000      1.00000000      1.00000000      1.00000000      1.00000000      1.00000000      1.00000000      1.00000000      1.00000000      1.00000000      1.00000000</v>
    <i name="NUPDOWN">     -1.00000000</i>
    <i type="logical" name="LSORBIT"> F  </i>
    <v name="SAXIS">      0.00000000      0.00000000      1.00000000</v>
    <i type="logical" name="LSPIRAL"> F  </i>
    <v name="QSPIRAL">      0.00000000      0.00000000      0.00000000</v>
    <i type="logical" name="LZEROZ"> F  </i>
   </separator>
   <separator name="electronic exchange-correlation" >
    <i type="string" name="GGA">--</i>
    <i type="int" name="VOSKOWN">     0</i>
    <i type="logical" name="LASPH"> F  </i>
    <i type="logical" name="LMETAGGA"> F  </i>
    <i type="string" name="GGA2">--</i>
   </separator>
   <separator name="electronic convergence" >
    <i type="int" name="NELM">    60</i>
    <i type="int" name="NELMDL">     0</i>
    <i type="int" name="NELMIN">     2</i>
    <i name="ENINI">    500.00000000</i>
    <separator name="electronic convergence detail" >
     <i type="logical" name="LDIAG"> T  </i>
     <i name="WEIMIN">      0.00000000</i>
     <i name="EBREAK">      0.00000000</i>
     <i name="DEPER">      0.30000000</i>
     <i type="int" name="NRMM">     4</i>
     <i name="TIME">      0.10000000</i>
    </separator>
   </separator>
   <separator name="electronic mixer" >
    <i name="AMIX">      0.40000000</i>
    <i name="BMIX">      1.00000000</i>
    <i name="AMIN">      0.10000000</i>
    <i name="AMIX_MAG">      1.60000000</i>
    <i name="BMIX_MAG">      1.00000000</i>
    <separator name="electronic mixer details" >
     <i type="int" name="IMIX">     4</i>
     <i type="int" name="MAXMIX">   -45</i>
     <i name="WC">    100.00000000</i>
     <i type="int" name="INIMIX">     1</i>
     <i type="int" name="MIXPRE">     1</i>
     <i type="int" name="MREMOVE">     5</i>
    </separator>
   </separator>
   <separator name="electronic dipolcorrection" >
    <i type="int" name="IDIPOL">     0</i>
    <i type="logical" name="LDIPOL"> F  </i>
    <v name="DIPOL">   -100.00000000</v>
    <i name="EFIELD">      0.00000000</i>
   </separator>
  </separator>
  <separator name="grids" >
   <i type="int" name="NGX">    56</i>
   <i type="int" name="NGY">    56</i>
   <i type="int" name="NGZ">    56</i>
   <i type="int" name="NGXF">   112</i>
   <i type="int" name="NGYF">   112</i>
   <i type="int" name="NGZF">   112</i>
   <i type="logical" name="ADDGRID"> F  </i>
  </separator>
  <separator name="ionic" >
   <i type="int" name="NSW">     0</i>
   <i type="int" name="IBRION">    -1</i>
   <i type="int" name="ISIF">     2</i>
   <i name="PSTRESS">      0.00000000</i>
   <i name="EDIFFG">      0.00000010</i>
   <i type="int" name="NFREE">     0</i>
   <i name="POTIM">      0.50000000</i>
   <i name="SMASS">     -3.00000000</i>
  </separator>
  <separator name="ionic md" >
   <i name="TEBEG">      0.00010000</i>
   <i name="TEEND">      0.00010000</i>
   <i type="int" name="NBLOCK">     1</i>
   <i type="int" name="KBLOCK">     1</i>
   <i type="int" name="NPACO">   256</i>
   <i name="APACO">     16.00000000</i>
  </separator>
  <separator name="symmetry" >
   <i type="int" name="ISYM">     2</i>
   <i name="SYMPREC">      0.00001000</i>
  </separator>
  <separator name="dos" >
   <i type="logical" name="LORBIT"> F  </i>
   <v name="RWIGS">     -1.00000000</v>
   <i type="int" name="NEDOS">   301</i>
   <i name="EMIN">     10.00000000</i>
   <i name="EMAX">    -10.00000000</i>
  </separator>
  <separator name="writing" >
   <i type="int" name="NWRITE">     2</i>
   <i type="logical" name="LWAVE"> F  </i>
   <i type="logical" name="LCHARG"> F  </i>
   <i type="logical" name="LPARD"> F  </i>
   <i type="logical" name="LVTOT"> F  </i>
   <i type="logical" name="LELF"> F  </i>
   <i type="logical" name="LOPTICS"> F  </i>
   <i name="STM">      0.00000000</i>
  </separator>
  <separator name="performance" >
   <i type="int" name="NPAR">     8</i>
   <i type="int" name="NSIM">     4</i>
   <i type="int" name="NBLK">   256</i>
   <i type="logical" name="LPLANE"> T  </i>
   <i type="logical" name="LCRITICAL_MEM"> F  </i>
   <i type="logical" name="LSCALAPACK"> F  </i>
   <i type="logical" name="LSCALU"> F  </i>
   <i type="logical" name="LASYNC"> F  </i>
  </separator>
  <separator name="miscellaneous" >
   <i type="int" name="IDIOT">     3</i>
   <i type="logical" name="LMUSIC"> F  </i>
   <v name="POMASS">     26.98200000</v>
   <i type="logical" name="LCORR"> T  </i>
  </separator>
  <i type="logical" name="LREAL_COMPAT"> F  </i>
  <i type="logical" name="GGA_COMPAT"> T  </i>
  <i type="logical" name="LBERRY"> F  </i>
  <i type="int" name="ICORELEVEL">     0</i>
  <i type="logical" name="LDAU"> F  </i>
  <i type="int" name="I_CONSTRAINED_M">     0</i>
 </parameters>
 <atominfo>
  <atoms>      32</atoms>
  <types>       1</types>
  <array name="atoms" >
   <dimension dim="1">ion</dimension>
   <field type="string">element</field>
   <field type="int">atomtype</field>
   <set>
    <rc><c>Al</c><c>   1</c></rc>
    <rc><c>Al</c><c>   1</c></rc>
    <rc><c>Al</c><c>   1</c></rc>
    <rc><c>Al</c><c>   1</c></rc>
    <rc><c>Al</c><c>   1</c></rc>
    <rc><c>Al</c><c>   1</c></rc>
    <rc><c>Al</c><c>   1</c></rc>
    <rc><c>Al</c><c>   1</c></rc>
    <rc><c>Al</c><c>   1</c></rc>
    <rc><c>Al</c><c>   1</c></rc>
    <rc><c>Al</c><c>   1</c></rc>
    <rc><c>Al</c><c>   1</c></rc>
    <rc><c>Al</c><c>   1</c></rc>
    <rc><c>Al</c><c>   1</c></rc>
    <rc><c>Al</c><c>   1</c></rc>
    <rc><c>Al</c><c>   1</c></rc>
    <rc><c>Al</c><c>   1</c></rc>
    <rc><c>Al</c><c>   1</c></rc>
    <rc><c>Al</c><c>   1</c></rc>
    <rc><c>Al</c><c>   1</c></rc>
    <rc><c>Al</c><c>   1</c></rc>
    <rc><c>Al</c><c>   1</c></rc>
    <rc><c>Al</c><c>   1</c></rc>
    <rc><c>Al</c><c>   1</c></rc>
    <rc><c>Al</c><c>   1</c></rc>
    <rc><c>Al</c><c>   1</c></rc>
    <rc><c>Al</c><c>   1</c></rc>
    <rc><c>Al</c><c>   1</c></rc>
    <rc><c>Al</c><c>   1</c></rc>
    <rc><c>Al</c><c>   1</c></rc>
    <rc><c>Al</c><c>   1</c></rc>
    <rc><c>Al</c><c>   1</c></rc>
   </set>
  </array>
  <array name="atomtypes" >
   <dimension dim="1">type</dimension>
   <field type="int">atomspertype</field>
   <field type="string">element</field>
   <field>mass</field>
   <field>valence</field>
   <field type="string">pseudopotential</field>
   <set>
    <rc><c>  32</c><c>Al</c><c>     26.98200000</c><c>      3.00000000</c><c> PAW_PBE Al 04Jan2001                   </c></rc>
   </set>
  </array>
 </atominfo>
 <structure name="initialpos" >
  <crystal>
   <varray name="basis" >
    <v>       7.67088210      0.00000000      0.00000000</v>
    <v>       0.00000000      7.67088210      0.00000000</v>
    <v>       0.00000000      0.00000000      7.67088210</v>
   </varray>
   <i name="volume">    451.37336024</i>
   <varray name="rec_basis" >
    <v>       0.13036310      0.00000000      0.00000000</v>
    <v>       0.00000000      0.13036310      0.00000000</v>
    <v>       0.00000000      0.00000000      0.13036310</v>
   </varray>
  </crystal>
  <varray name="positions" >
   <v>       0.25130363      0.25000000      0.00000000</v>
   <v>       0.75000000      0.25000000      0.00000000</v>
   <v>       0.25000000      0.75000000      0.00000000</v>
   <v>       0.75000000      0.75000000      0.00000000</v>
   <v>       0.25000000      0.25000000      0.50000000</v>
   <v>       0.75000000      0.25000000      0.50000000</v>
   <v>       0.25000000      0.75000000      0.50000000</v>
   <v>       0.75000000      0.75000000      0.50000000</v>
   <v>       0.25000000      0.00000000      0.25000000</v>
   <v>       0.75000000      0.00000000      0.25000000</v>
   <v>       0.25000000      0.50000000      0.25000000</v>
   <v>       0.75000000      0.50000000      0.25000000</v>
   <v>       0.25000000      0.00000000      0.75000000</v>
   <v>       0.75000000      0.00000000      0.75000000</v>
   <v>       0.25000000      0.50000000      0.75000000</v>
   <v>       0.75000000      0.50000000      0.75000000</v>
   <v>       0.00000000      0.25000000      0.25000000</v>
   <v>       0.50000000      0.25000000      0.25000000</v>
   <v>       0.00000000      0.75000000      0.25000000</v>
   <v>       0.50000000      0.75000000      0.25000000</v>
   <v>       0.00000000      0.25000000      0.75000000</v>
   <v>       0.50000000      0.25000000      0.75000000</v>
   <v>       0.00000000      0.75000000      0.75000000</v>
   <v>       0.50000000      0.75000000      0.75000000</v>
   <v>       0.00000000      0.00000000      0.00000000</v>
   <v>       0.50000000      0.00000000      0.00000000</v>
   <v>       0.00000000      0.50000000      0.00000000</v>
   <v>       0.50000000      0.50000000      0.00000000</v>
   <v>       0.00000000      0.00000000      0.50000000</v>
   <v>       0.50000000      0.00000000      0.50000000</v>
   <v>       0.00000000      0.50000000      0.50000000</v>
   <v>       0.50000000      0.50000000      0.50000000</v>
  </varray>
 </structure>
 <calculation>
  <scstep>
   <time name="dav">   23.79   23.83</time>
   <time name="total">   24.11   24.15</time>
   <energy>
    <i name="alphaZ">     -7.61990802</i>
    <i name="ewald">  -2478.73017096</i>
    <i name="hartreedc">     -2.10401837</i>
    <i name="XCdc">   -830.39434498</i>
    <i name="pawpsdc">   1137.73615723</i>
    <i name="pawaedc">   -115.16745734</i>
    <i name="eentropy">     -0.00042705</i>
    <i name="bandstr">    724.09123462</i>
    <i name="atom">   1713.22913220</i>
    <i name="e_fr_energy">    141.04019733</i>
    <i name="e_wo_entrp">    141.04062438</i>
    <i name="e_0_energy">    141.04041085</i>
   </energy>
  </scstep>
  <scstep>
   <time name="dav">   29.38   29.37</time>
   <time name="total">   29.38   29.38</time>
   <energy>
    <i name="e_fr_energy">   -103.87366365</i>
    <i name="e_wo_entrp">   -103.87330129</i>
    <i name="e_0_energy">   -103.87348247</i>
   </energy>
  </scstep>
  <scstep>
   <time name="dav">   27.41   27.40</time>
   <time name="total">   27.41   27.41</time>
   <energy>
    <i name="e_fr_energy">   -116.98104400</i>
    <i name="e_wo_entrp">   -116.98094551</i>
    <i name="e_0_energy">   -116.98099476</i>
   </energy>
  </scstep>
  <scstep>
   <time name="dav">   25.67   25.66</time>
   <time name="total">   25.67   25.66</time>
   <energy>
    <i name="e_fr_energy">   -117.20421717</i>
    <i name="e_wo_entrp">   -117.20412561</i>
    <i name="e_0_energy">   -117.20417139</i>
   </energy>
  </scstep>
  <scstep>
   <time name="dav">   18.19   18.18</time>
   <time name="total">   18.90   18.90</time>
   <energy>
    <i name="e_fr_energy">   -117.20677651</i>
    <i name="e_wo_entrp">   -117.20668479</i>
    <i name="e_0_energy">   -117.20673065</i>
   </energy>
  </scstep>
  <scstep>
   <time name="dav">   16.98   16.98</time>
   <time name="total">   17.91   17.90</time>
   <energy>
    <i name="e_fr_energy">   -116.70531542</i>
    <i name="e_wo_entrp">   -116.70522338</i>
    <i name="e_0_energy">   -116.70526940</i>
   </energy>
  </scstep>
  <scstep>
   <time name="dav">   21.43   21.43</time>
   <time name="total">   22.57   22.56</time>
   <energy>
    <i name="e_fr_energy">   -116.34505312</i>
    <i name="e_wo_entrp">   -116.34495912</i>
    <i name="e_0_energy">   -116.34500612</i>
   </energy>
  </scstep>
  <scstep>
   <time name="dav">   18.46   18.46</time>
   <time name="total">   19.62   19.62</time>
   <energy>
    <i name="e_fr_energy">   -116.34526383</i>
    <i name="e_wo_entrp">   -116.34516966</i>
    <i name="e_0_energy">   -116.34521675</i>
   </energy>
  </scstep>
  <scstep>
   <time name="dav">   16.66   16.66</time>
   <time name="total">   17.48   17.48</time>
   <energy>
    <i name="e_fr_energy">   -116.34529541</i>
    <i name="e_wo_entrp">   -116.34520128</i>
    <i name="e_0_energy">   -116.34524834</i>
   </energy>
  </scstep>
  <scstep>
   <time name="dav">   17.42   17.41</time>
   <time name="total">   18.25   18.25</time>
   <energy>
    <i name="e_fr_energy">   -116.34529844</i>
    <i name="e_wo_entrp">   -116.34520435</i>
    <i name="e_0_energy">   -116.34525139</i>
   </energy>
  </scstep>
  <scstep>
   <time name="dav">   16.93   16.92</time>
   <time name="total">   17.75   17.75</time>
   <energy>
    <i name="e_fr_energy">   -116.34529760</i>
    <i name="e_wo_entrp">   -116.34520354</i>
    <i name="e_0_energy">   -116.34525057</i>
   </energy>
  </scstep>
  <scstep>
   <time name="dav">   12.41   12.41</time>
   <time name="total">   13.26   13.26</time>
   <energy>
    <i name="e_fr_energy">   -116.34529727</i>
    <i name="e_wo_entrp">   -116.34520320</i>
    <i name="e_0_energy">   -116.34525023</i>
   </energy>
  </scstep>
  <scstep>
   <time name="dav">   10.49   10.49</time>
   <time name="total">   11.26   11.26</time>
   <energy>
    <i name="e_fr_energy">   -116.34529716</i>
    <i name="e_wo_entrp">   -116.34520310</i>
    <i name="e_0_energy">   -116.34525013</i>
   </energy>
  </scstep>
  <scstep>
   <time name="dav">   10.58   10.58</time>
   <time name="total">   11.30   11.30</time>
   <energy>
    <i name="e_fr_energy">   -116.34529715</i>
    <i name="e_wo_entrp">   -116.34520309</i>
    <i name="e_0_energy">   -116.34525012</i>
   </energy>
  </scstep>
  <scstep>
   <time name="dav">    9.89    9.88</time>
   <time name="total">   10.02   10.01</time>
   <energy>
    <i name="alphaZ">     -7.61990802</i>
    <i name="ewald">  -2478.73017096</i>
    <i name="hartreedc">     -4.60643767</i>
    <i name="XCdc">   -825.76714964</i>
    <i name="pawpsdc">   1161.02446052</i>
    <i name="pawaedc">   -139.88310931</i>
    <i name="eentropy">     -0.00009407</i>
    <i name="bandstr">    466.00797979</i>
    <i name="atom">   1713.22913220</i>
    <i name="e_fr_energy">   -116.34529715</i>
    <i name="e_wo_entrp">   -116.34520308</i>
    <i name="e_0_energy">   -116.34525012</i>
   </energy>
  </scstep>
  <structure>
   <crystal>
    <varray name="basis" >
     <v>       7.67088210      0.00000000      0.00000000</v>
     <v>       0.00000000      7.67088210      0.00000000</v>
     <v>       0.00000000      0.00000000      7.67088210</v>
    </varray>
    <i name="volume">    451.37336024</i>
    <varray name="rec_basis" >
     <v>       0.13036310      0.00000000      0.00000000</v>
     <v>       0.00000000      0.13036310      0.00000000</v>
     <v>       0.00000000      0.00000000      0.13036310</v>
    </varray>
   </crystal>
   <varray name="positions" >
    <v>       0.25130363      0.25000000      0.00000000</v>
    <v>       0.75000000      0.25000000      0.00000000</v>
    <v>       0.25000000      0.75000000      0.00000000</v>
    <v>       0.75000000      0.75000000      0.00000000</v>
    <v>       0.25000000      0.25000000      0.50000000</v>
    <v>       0.75000000      0.25000000      0.50000000</v>
    <v>       0.25000000      0.75000000      0.50000000</v>
    <v>       0.75000000      0.75000000      0.50000000</v>
    <v>       0.25000000      0.00000000      0.25000000</v>
    <v>       0.75000000      0.00000000      0.25000000</v>
    <v>       0.25000000      0.50000000      0.25000000</v>
    <v>       0.75000000      0.50000000      0.25000000</v>
    <v>       0.25000000      0.00000000      0.75000000</v>
    <v>       0.75000000      0.00000000      0.75000000</v>
    <v>       0.25000000      0.50000000      0.75000000</v>
    <v>       0.75000000      0.50000000      0.75000000</v>
    <v>       0.00000000      0.25000000      0.25000000</v>
    <v>       0.50000000      0.25000000      0.25000000</v>
    <v>       0.00000000      0.75000000      0.25000000</v>
    <v>       0.50000000      0.75000000      0.25000000</v>
    <v>       0.00000000      0.25000000      0.75000000</v>
    <v>       0.50000000      0.25000000      0.75000000</v>
    <v>       0.00000000      0.75000000      0.75000000</v>
    <v>       0.50000000      0.75000000      0.75000000</v>
    <v>       0.00000000      0.00000000      0.00000000</v>
    <v>       0.50000000      0.00000000      0.00000000</v>
    <v>       0.00000000      0.50000000      0.00000000</v>
    <v>       0.50000000      0.50000000      0.00000000</v>
    <v>       0.00000000      0.00000000      0.50000000</v>
    <v>       0.50000000      0.00000000      0.50000000</v>
    <v>       0.00000000      0.50000000      0.50000000</v>
    <v>       0.50000000      0.50000000      0.50000000</v>
   </varray>
  </structure>
  <varray name="forces" >
   <v>      -0.08373961     -0.00000000     -0.00000000</v>
   <v>       0.00377393     -0.00000000     -0.00000000</v>
   <v>      -0.00028220      0.00000000     -0.00000000</v>
   <v>       0.00037473      0.00000000      0.00000000</v>
   <v>      -0.00028220     -0.00000000      0.00000000</v>
   <v>       0.00037473     -0.00000000      0.00000000</v>
   <v>       0.00027037     -0.00000000     -0.00000000</v>
   <v>      -0.00116501     -0.00000000      0.00000000</v>
   <v>      -0.00179720      0.00003904     -0.00003904</v>
   <v>      -0.00032414     -0.00000293      0.00000293</v>
   <v>      -0.00179720     -0.00003904     -0.00003904</v>
   <v>      -0.00032414      0.00000293      0.00000293</v>
   <v>      -0.00179720      0.00003904      0.00003904</v>
   <v>      -0.00032414     -0.00000293     -0.00000293</v>
   <v>      -0.00179720     -0.00003904      0.00003904</v>
   <v>      -0.00032414      0.00000293     -0.00000293</v>
   <v>       0.01064252     -0.00000000     -0.01204603</v>
   <v>       0.01087244      0.00000000      0.01237617</v>
   <v>       0.00038622      0.00000000      0.00004659</v>
   <v>       0.00038897      0.00000000     -0.00003774</v>
   <v>       0.01064252      0.00000000      0.01204603</v>
   <v>       0.01087244     -0.00000000     -0.01237617</v>
   <v>       0.00038622      0.00000000     -0.00004659</v>
   <v>       0.00038897     -0.00000000      0.00003774</v>
   <v>       0.01064252      0.01204603     -0.00000000</v>
   <v>       0.01087244     -0.01237617      0.00000000</v>
   <v>       0.01064252     -0.01204603      0.00000000</v>
   <v>       0.01087244      0.01237617     -0.00000000</v>
   <v>       0.00038622     -0.00004659     -0.00000000</v>
   <v>       0.00038897      0.00003774     -0.00000000</v>
   <v>       0.00038622      0.00004659     -0.00000000</v>
   <v>       0.00038897     -0.00003774      0.00000000</v>
  </varray>
  <varray name="stress" >
   <v>     171.68159756     -0.00000000      0.00000000</v>
   <v>      -0.00000000    171.68045498      0.00000000</v>
   <v>       0.00000000      0.00000000    171.68045498</v>
  </varray>
  <energy>
   <i name="e_fr_energy">   -116.34529715</i>
   <i name="e_wo_entrp">   -116.34525012</i>
   <i name="e_0_energy">     -0.00009407</i>
  </energy>
  <eigenvalues>
   <array>
    <dimension dim="1">band</dimension>
    <dimension dim="2">kpoint</dimension>
    <dimension dim="3">spin</dimension>
    <field>eigene</field>
    <field>occ</field>
    <set>
     <set comment="spin 1">
      <set comment="kpoint 1">
       <r>  -2.5256  1.0000</r>
       <r>  -0.0424  1.0000</r>
       <r>  -0.0382  1.0000</r>
       <r>  -0.0382  1.0000</r>
       <r>  -0.0382  1.0000</r>
       <r>  -0.0382  1.0000</r>
       <r>  -0.0341  1.0000</r>
       <r>   2.3901  1.0000</r>
       <r>   2.3946  1.0000</r>
       <r>   2.3946  1.0000</r>
       <r>   2.3965  1.0000</r>
       <r>   2.3968  1.0000</r>
       <r>   2.3968  1.0000</r>
       <r>   2.3968  1.0000</r>
       <r>   2.3968  1.0000</r>
       <r>   2.3970  1.0000</r>
       <r>   2.3989  1.0000</r>
       <r>   2.3989  1.0000</r>
       <r>   2.4034  1.0000</r>
       <r>   4.5016  1.0000</r>
       <r>   4.5016  1.0000</r>
       <r>   4.5016  1.0000</r>
       <r>   4.5016  1.0000</r>
       <r>   5.1324  1.0000</r>
       <r>   5.1324  1.0000</r>
       <r>   5.1324  1.0000</r>
       <r>   5.1324  1.0000</r>
       <r>   6.4350  1.0000</r>
       <r>   6.4350  1.0000</r>
       <r>   6.4351  1.0000</r>
       <r>   8.0622  1.0000</r>
       <r>   8.0623  1.0000</r>
       <r>   8.0623  1.0000</r>
       <r>   8.6881  1.0000</r>
       <r>   8.6881  1.0000</r>
       <r>   8.6929  1.0000</r>
       <r>   8.6929  1.0000</r>
       <r>   8.6931  1.0000</r>
       <r>   8.6931  1.0000</r>
       <r>   8.6931  1.0000</r>
       <r>   8.6931  1.0000</r>
       <r>   8.6933  1.0000</r>
       <r>   8.6933  1.0000</r>
       <r>   8.6981  1.0000</r>
       <r>   8.6981  1.0000</r>
       <r>   9.6051  1.0000</r>
       <r>   9.6098  1.0000</r>
       <r>   9.6098  1.0000</r>
       <r>   9.6098  1.0000</r>
       <r>   9.6098  1.0000</r>
       <r>   9.6145  1.0000</r>
       <r>  10.9629  0.0000</r>
       <r>  10.9629  0.0000</r>
       <r>  10.9642  0.0000</r>
       <r>  10.9671  0.0000</r>
       <r>  10.9673  0.0000</r>
       <r>  10.9673  0.0000</r>
       <r>  10.9673  0.0000</r>
       <r>  10.9673  0.0000</r>
       <r>  10.9675  0.0000</r>
       <r>  10.9704  0.0000</r>
       <r>  10.9717  0.0000</r>
       <r>  10.9717  0.0000</r>
       <r>  11.7774  0.0000</r>
       <r>  11.7788  0.0000</r>
       <r>  11.7788  0.0000</r>
       <r>  11.7788  0.0000</r>
       <r>  11.7788  0.0000</r>
       <r>  11.7803  0.0000</r>
       <r>  12.9758  0.0000</r>
       <r>  12.9785  0.0000</r>
       <r>  12.9798  0.0000</r>
      </set>
      <set comment="kpoint 2">
       <r>  -2.4743  1.0000</r>
       <r>  -0.6930  1.0000</r>
       <r>   0.0119  1.0000</r>
       <r>   0.0120  1.0000</r>
       <r>   0.0120  1.0000</r>
       <r>   0.0120  1.0000</r>
       <r>   0.7125  1.0000</r>
       <r>   1.7560  1.0000</r>
       <r>   1.7560  1.0000</r>
       <r>   1.7560  1.0000</r>
       <r>   1.7560  1.0000</r>
       <r>   2.4458  1.0000</r>
       <r>   2.4458  1.0000</r>
       <r>   2.4458  1.0000</r>
       <r>   2.4458  1.0000</r>
       <r>   3.1310  1.0000</r>
       <r>   3.1310  1.0000</r>
       <r>   3.1310  1.0000</r>
       <r>   3.1310  1.0000</r>
       <r>   4.1134  1.0000</r>
       <r>   4.1134  1.0000</r>
       <r>   4.1134  1.0000</r>
       <r>   4.1134  1.0000</r>
       <r>   5.6140  1.0000</r>
       <r>   5.6140  1.0000</r>
       <r>   5.6140  1.0000</r>
       <r>   5.6140  1.0000</r>
       <r>   5.7157  1.0000</r>
       <r>   6.4810  1.0000</r>
       <r>   6.4810  1.0000</r>
       <r>   7.9709  1.0000</r>
       <r>   7.9709  1.0000</r>
       <r>   7.9709  1.0000</r>
       <r>   7.9709  1.0000</r>
       <r>   8.0929  1.0000</r>
       <r>   8.0929  1.0000</r>
       <r>   8.1087  1.0000</r>
       <r>   8.1088  1.0000</r>
       <r>   8.7394  1.0000</r>
       <r>   8.7394  1.0000</r>
       <r>   8.7394  1.0000</r>
       <r>   8.7394  1.0000</r>
       <r>   8.8670  1.0000</r>
       <r>   9.3865  1.0000</r>
       <r>   9.3865  1.0000</r>
       <r>   9.4546  1.0000</r>
       <r>   9.4546  1.0000</r>
       <r>  10.1176  0.0000</r>
       <r>  10.1176  0.0000</r>
       <r>  10.1176  0.0000</r>
       <r>  10.1177  0.0000</r>
       <r>  10.3538  0.0000</r>
       <r>  10.3538  0.0000</r>
       <r>  10.3543  0.0000</r>
       <r>  10.3545  0.0000</r>
       <r>  10.3631  0.0000</r>
       <r>  10.3632  0.0000</r>
       <r>  10.3637  0.0000</r>
       <r>  10.3637  0.0000</r>
       <r>  11.6650  0.0000</r>
       <r>  11.6650  0.0000</r>
       <r>  11.6650  0.0000</r>
       <r>  11.6650  0.0000</r>
       <r>  12.0191  0.0000</r>
       <r>  12.0191  0.0000</r>
       <r>  12.1274  0.0000</r>
       <r>  12.1274  0.0000</r>
       <r>  12.1274  0.0000</r>
       <r>  12.1274  0.0000</r>
       <r>  12.3612  0.0000</r>
       <r>  12.3612  0.0000</r>
       <r>  12.3612  0.0000</r>
      </set>
      <set comment="kpoint 3">
       <r>  -2.3206  1.0000</r>
       <r>  -1.2500  1.0000</r>
       <r>   0.1625  1.0000</r>
       <r>   0.1625  1.0000</r>
       <r>   0.1625  1.0000</r>
       <r>   0.1625  1.0000</r>
       <r>   1.2107  1.0000</r>
       <r>   1.2108  1.0000</r>
       <r>   1.2108  1.0000</r>
       <r>   1.2108  1.0000</r>
       <r>   1.5569  1.0000</r>
       <r>   2.5928  1.0000</r>
       <r>   2.5928  1.0000</r>
       <r>   2.5928  1.0000</r>
       <r>   2.5928  1.0000</r>
       <r>   3.6076  1.0000</r>
       <r>   3.6076  1.0000</r>
       <r>   3.6076  1.0000</r>
       <r>   3.6076  1.0000</r>
       <r>   3.9557  1.0000</r>
       <r>   3.9557  1.0000</r>
       <r>   3.9557  1.0000</r>
       <r>   3.9557  1.0000</r>
       <r>   4.6025  1.0000</r>
       <r>   6.3990  1.0000</r>
       <r>   6.3990  1.0000</r>
       <r>   6.3990  1.0000</r>
       <r>   6.3990  1.0000</r>
       <r>   6.6189  1.0000</r>
       <r>   6.6189  1.0000</r>
       <r>   6.9066  1.0000</r>
       <r>   6.9066  1.0000</r>
       <r>   6.9066  1.0000</r>
       <r>   6.9066  1.0000</r>
       <r>   7.5855  1.0000</r>
       <r>   7.5855  1.0000</r>
       <r>   8.2468  1.0000</r>
       <r>   8.2468  1.0000</r>
       <r>   8.8784  1.0000</r>
       <r>   8.8784  1.0000</r>
       <r>   8.8784  1.0000</r>
       <r>   8.8784  1.0000</r>
       <r>   9.1223  1.0000</r>
       <r>   9.1223  1.0000</r>
       <r>   9.3160  1.0000</r>
       <r>   9.3160  1.0000</r>
       <r>   9.3160  1.0000</r>
       <r>   9.3160  1.0000</r>
       <r>   9.8523  0.0000</r>
       <r>   9.8523  0.0000</r>
       <r>   9.8523  0.0000</r>
       <r>   9.8523  0.0000</r>
       <r>  10.1731  0.0000</r>
       <r>  10.1731  0.0000</r>
       <r>  10.2362  0.0000</r>
       <r>  10.6021  0.0000</r>
       <r>  10.6021  0.0000</r>
       <r>  10.6021  0.0000</r>
       <r>  10.6021  0.0000</r>
       <r>  11.8245  0.0000</r>
       <r>  11.8245  0.0000</r>
       <r>  11.8245  0.0000</r>
       <r>  11.8245  0.0000</r>
       <r>  12.4562  0.0000</r>
       <r>  12.4562  0.0000</r>
       <r>  12.4562  0.0000</r>
       <r>  12.4562  0.0000</r>
       <r>  12.6038  0.0000</r>
       <r>  12.6039  0.0000</r>
       <r>  13.0798  0.0000</r>
       <r>  13.0822  0.0000</r>
       <r>  13.1087  0.0000</r>
      </set>
      <set comment="kpoint 4">
       <r>  -2.0648  1.0000</r>
       <r>  -1.7076  1.0000</r>
       <r>   0.4129  1.0000</r>
       <r>   0.4129  1.0000</r>
       <r>   0.4129  1.0000</r>
       <r>   0.4129  1.0000</r>
       <r>   0.7627  1.0000</r>
       <r>   0.7627  1.0000</r>
       <r>   0.7627  1.0000</r>
       <r>   0.7627  1.0000</r>
       <r>   2.4916  1.0000</r>
       <r>   2.8369  1.0000</r>
       <r>   2.8369  1.0000</r>
       <r>   2.8369  1.0000</r>
       <r>   2.8369  1.0000</r>
       <r>   3.1766  1.0000</r>
       <r>   3.1766  1.0000</r>
       <r>   3.1766  1.0000</r>
       <r>   3.1766  1.0000</r>
       <r>   3.5111  1.0000</r>
       <r>   4.8664  1.0000</r>
       <r>   4.8664  1.0000</r>
       <r>   4.8664  1.0000</r>
       <r>   4.8664  1.0000</r>
       <r>   5.8555  1.0000</r>
       <r>   5.8555  1.0000</r>
       <r>   5.8555  1.0000</r>
       <r>   5.8555  1.0000</r>
       <r>   6.8488  1.0000</r>
       <r>   6.8488  1.0000</r>
       <r>   7.1709  1.0000</r>
       <r>   7.1709  1.0000</r>
       <r>   7.2928  1.0000</r>
       <r>   7.2928  1.0000</r>
       <r>   7.2928  1.0000</r>
       <r>   7.2928  1.0000</r>
       <r>   8.2723  1.0000</r>
       <r>   8.2723  1.0000</r>
       <r>   8.2723  1.0000</r>
       <r>   8.2723  1.0000</r>
       <r>   8.4716  1.0000</r>
       <r>   8.4716  1.0000</r>
       <r>   8.7721  1.0000</r>
       <r>   8.7721  1.0000</r>
       <r>   9.1101  1.0000</r>
       <r>   9.1101  1.0000</r>
       <r>   9.1101  1.0000</r>
       <r>   9.1101  1.0000</r>
       <r>   9.4347  1.0000</r>
       <r>   9.4347  1.0000</r>
       <r>   9.4347  1.0000</r>
       <r>   9.4347  1.0000</r>
       <r>  10.9742  0.0000</r>
       <r>  10.9742  0.0000</r>
       <r>  10.9742  0.0000</r>
       <r>  10.9742  0.0000</r>
       <r>  11.0523  0.0000</r>
       <r>  11.0523  0.0000</r>
       <r>  11.3665  0.0000</r>
       <r>  11.3665  0.0000</r>
       <r>  11.3665  0.0000</r>
       <r>  11.3665  0.0000</r>
       <r>  11.7539  0.0000</r>
       <r>  12.0229  0.0000</r>
       <r>  12.0229  0.0000</r>
       <r>  13.3407  0.0000</r>
       <r>  13.3407  0.0000</r>
       <r>  13.3407  0.0000</r>
       <r>  13.3407  0.0000</r>
       <r>  13.3638  0.0000</r>
       <r>  13.3647  0.0000</r>
       <r>  13.3704  0.0000</r>
      </set>
      <set comment="kpoint 5">
       <r>  -2.4743  1.0000</r>
       <r>  -0.6930  1.0000</r>
       <r>   0.0088  1.0000</r>
       <r>   0.0120  1.0000</r>
       <r>   0.0120  1.0000</r>
       <r>   0.0151  1.0000</r>
       <r>   0.7125  1.0000</r>
       <r>   1.7528  1.0000</r>
       <r>   1.7560  1.0000</r>
       <r>   1.7560  1.0000</r>
       <r>   1.7592  1.0000</r>
       <r>   2.4436  1.0000</r>
       <r>   2.4445  1.0000</r>
       <r>   2.4472  1.0000</r>
       <r>   2.4480  1.0000</r>
       <r>   3.1277  1.0000</r>
       <r>   3.1310  1.0000</r>
       <r>   3.1310  1.0000</r>
       <r>   3.1342  1.0000</r>
       <r>   4.1113  1.0000</r>
       <r>   4.1121  1.0000</r>
       <r>   4.1146  1.0000</r>
       <r>   4.1154  1.0000</r>
       <r>   5.6119  1.0000</r>
       <r>   5.6127  1.0000</r>
       <r>   5.6152  1.0000</r>
       <r>   5.6160  1.0000</r>
       <r>   5.7157  1.0000</r>
       <r>   6.4810  1.0000</r>
       <r>   6.4810  1.0000</r>
       <r>   7.9673  1.0000</r>
       <r>   7.9709  1.0000</r>
       <r>   7.9709  1.0000</r>
       <r>   7.9744  1.0000</r>
       <r>   8.0928  1.0000</r>
       <r>   8.0928  1.0000</r>
       <r>   8.1087  1.0000</r>
       <r>   8.1088  1.0000</r>
       <r>   8.7364  1.0000</r>
       <r>   8.7394  1.0000</r>
       <r>   8.7394  1.0000</r>
       <r>   8.7424  1.0000</r>
       <r>   8.8670  1.0000</r>
       <r>   9.3865  1.0000</r>
       <r>   9.3865  1.0000</r>
       <r>   9.4546  1.0000</r>
       <r>   9.4546  1.0000</r>
       <r>  10.1145  0.0000</r>
       <r>  10.1177  0.0000</r>
       <r>  10.1177  0.0000</r>
       <r>  10.1208  0.0000</r>
       <r>  10.3515  0.0000</r>
       <r>  10.3527  0.0000</r>
       <r>  10.3556  0.0000</r>
       <r>  10.3569  0.0000</r>
       <r>  10.3603  0.0000</r>
       <r>  10.3631  0.0000</r>
       <r>  10.3636  0.0000</r>
       <r>  10.3664  0.0000</r>
       <r>  11.6618  0.0000</r>
       <r>  11.6650  0.0000</r>
       <r>  11.6650  0.0000</r>
       <r>  11.6681  0.0000</r>
       <r>  12.0191  0.0000</r>
       <r>  12.0191  0.0000</r>
       <r>  12.1260  0.0000</r>
       <r>  12.1274  0.0000</r>
       <r>  12.1274  0.0000</r>
       <r>  12.1287  0.0000</r>
       <r>  12.3598  0.0000</r>
       <r>  12.3612  0.0000</r>
       <r>  12.3622  0.0000</r>
      </set>
      <set comment="kpoint 6">
       <r>  -2.4230  1.0000</r>
       <r>  -0.6439  1.0000</r>
       <r>  -0.6412  1.0000</r>
       <r>   0.0622  1.0000</r>
       <r>   0.0622  1.0000</r>
       <r>   0.7611  1.0000</r>
       <r>   0.7637  1.0000</r>
       <r>   1.1114  1.0000</r>
       <r>   1.8035  1.0000</r>
       <r>   1.8046  1.0000</r>
       <r>   1.8062  1.0000</r>
       <r>   1.8072  1.0000</r>
       <r>   2.4944  1.0000</r>
       <r>   2.4952  1.0000</r>
       <r>   3.1777  1.0000</r>
       <r>   3.1787  1.0000</r>
       <r>   3.1804  1.0000</r>
       <r>   3.1814  1.0000</r>
       <r>   3.5108  1.0000</r>
       <r>   3.5108  1.0000</r>
       <r>   3.8595  1.0000</r>
       <r>   4.5952  1.0000</r>
       <r>   4.5952  1.0000</r>
       <r>   5.2310  1.0000</r>
       <r>   5.2310  1.0000</r>
       <r>   5.7623  1.0000</r>
       <r>   5.7630  1.0000</r>
       <r>   6.3043  1.0000</r>
       <r>   6.3044  1.0000</r>
       <r>   6.5269  1.0000</r>
       <r>   7.3860  1.0000</r>
       <r>   7.3886  1.0000</r>
       <r>   7.8414  1.0000</r>
       <r>   7.8414  1.0000</r>
       <r>   8.1375  1.0000</r>
       <r>   8.1406  1.0000</r>
       <r>   8.1544  1.0000</r>
       <r>   8.2616  1.0000</r>
       <r>   8.2616  1.0000</r>
       <r>   8.5893  1.0000</r>
       <r>   8.5917  1.0000</r>
       <r>   8.9116  1.0000</r>
       <r>   8.9124  1.0000</r>
       <r>   9.4313  1.0000</r>
       <r>   9.4344  1.0000</r>
       <r>   9.7437  0.0010</r>
       <r>   9.7447  0.0006</r>
       <r>   9.7463  0.0003</r>
       <r>   9.7474  0.0001</r>
       <r>   9.7600  0.0000</r>
       <r>   9.8708  0.0000</r>
       <r>   9.8728  0.0000</r>
       <r>  10.1243  0.0000</r>
       <r>  10.1273  0.0000</r>
       <r>  10.6531  0.0000</r>
       <r>  10.6531  0.0000</r>
       <r>  11.0543  0.0000</r>
       <r>  11.0549  0.0000</r>
       <r>  11.0558  0.0000</r>
       <r>  11.0569  0.0000</r>
       <r>  11.0592  0.0000</r>
       <r>  11.0610  0.0000</r>
       <r>  11.7478  0.0000</r>
       <r>  12.1871  0.0000</r>
       <r>  12.1879  0.0000</r>
       <r>  12.3634  0.0000</r>
       <r>  12.3796  0.0000</r>
       <r>  12.3798  0.0000</r>
       <r>  12.5306  0.0000</r>
       <r>  12.5327  0.0000</r>
       <r>  13.0574  0.0000</r>
       <r>  13.0596  0.0000</r>
      </set>
      <set comment="kpoint 7">
       <r>  -2.2694  1.0000</r>
       <r>  -1.1992  1.0000</r>
       <r>  -0.4912  1.0000</r>
       <r>   0.2126  1.0000</r>
       <r>   0.2126  1.0000</r>
       <r>   0.5630  1.0000</r>
       <r>   0.9119  1.0000</r>
       <r>   1.2604  1.0000</r>
       <r>   1.2604  1.0000</r>
       <r>   1.6064  1.0000</r>
       <r>   1.9527  1.0000</r>
       <r>   1.9535  1.0000</r>
       <r>   1.9541  1.0000</r>
       <r>   2.9816  1.0000</r>
       <r>   2.9816  1.0000</r>
       <r>   3.3242  1.0000</r>
       <r>   3.3248  1.0000</r>
       <r>   3.3256  1.0000</r>
       <r>   4.0034  1.0000</r>
       <r>   4.0034  1.0000</r>
       <r>   4.3047  1.0000</r>
       <r>   4.3047  1.0000</r>
       <r>   4.6504  1.0000</r>
       <r>   4.6770  1.0000</r>
       <r>   5.8062  1.0000</r>
       <r>   5.8062  1.0000</r>
       <r>   5.9034  1.0000</r>
       <r>   6.3065  1.0000</r>
       <r>   6.6648  1.0000</r>
       <r>   6.8819  1.0000</r>
       <r>   6.9324  1.0000</r>
       <r>   6.9324  1.0000</r>
       <r>   7.1073  1.0000</r>
       <r>   7.1073  1.0000</r>
       <r>   7.5768  1.0000</r>
       <r>   7.6317  1.0000</r>
       <r>   8.2620  1.0000</r>
       <r>   8.2620  1.0000</r>
       <r>   8.2778  1.0000</r>
       <r>   8.2894  1.0000</r>
       <r>   8.7033  1.0000</r>
       <r>   8.7033  1.0000</r>
       <r>   8.9578  1.0000</r>
       <r>   9.0455  1.0000</r>
       <r>   9.2300  1.0000</r>
       <r>   9.2300  1.0000</r>
       <r>   9.2499  1.0000</r>
       <r>   9.5722  1.0000</r>
       <r>   9.8702  0.0000</r>
       <r>   9.8832  0.0000</r>
       <r>  10.0214  0.0000</r>
       <r>  10.0214  0.0000</r>
       <r>  10.1370  0.0000</r>
       <r>  10.2196  0.0000</r>
       <r>  10.2786  0.0000</r>
       <r>  10.5481  0.0000</r>
       <r>  10.9834  0.0000</r>
       <r>  11.2188  0.0000</r>
       <r>  11.2559  0.0000</r>
       <r>  11.2559  0.0000</r>
       <r>  11.8479  0.0000</r>
       <r>  11.8479  0.0000</r>
       <r>  11.8501  0.0000</r>
       <r>  12.4967  0.0000</r>
       <r>  12.5065  0.0000</r>
       <r>  12.5299  0.0000</r>
       <r>  12.5299  0.0000</r>
       <r>  12.6932  0.0000</r>
       <r>  12.8127  0.0000</r>
       <r>  13.1267  0.0000</r>
       <r>  13.1560  0.0000</r>
       <r>  13.1924  0.0000</r>
      </set>
      <set comment="kpoint 8">
       <r>  -2.0137  1.0000</r>
       <r>  -1.6567  1.0000</r>
       <r>  -0.2393  1.0000</r>
       <r>   0.1124  1.0000</r>
       <r>   0.4629  1.0000</r>
       <r>   0.4630  1.0000</r>
       <r>   0.8125  1.0000</r>
       <r>   0.8125  1.0000</r>
       <r>   1.1607  1.0000</r>
       <r>   1.5082  1.0000</r>
       <r>   2.1997  1.0000</r>
       <r>   2.1997  1.0000</r>
       <r>   2.5400  1.0000</r>
       <r>   2.5430  1.0000</r>
       <r>   2.5437  1.0000</r>
       <r>   3.5593  1.0000</r>
       <r>   3.5655  1.0000</r>
       <r>   3.5658  1.0000</r>
       <r>   3.8976  1.0000</r>
       <r>   3.8976  1.0000</r>
       <r>   4.2430  1.0000</r>
       <r>   4.9124  1.0000</r>
       <r>   4.9124  1.0000</r>
       <r>   5.2416  1.0000</r>
       <r>   5.5779  1.0000</r>
       <r>   5.8972  1.0000</r>
       <r>   5.8972  1.0000</r>
       <r>   6.1375  1.0000</r>
       <r>   6.4642  1.0000</r>
       <r>   6.5520  1.0000</r>
       <r>   6.6811  1.0000</r>
       <r>   6.6812  1.0000</r>
       <r>   6.8948  1.0000</r>
       <r>   7.2170  1.0000</r>
       <r>   7.6581  1.0000</r>
       <r>   7.6581  1.0000</r>
       <r>   8.0031  1.0000</r>
       <r>   8.0031  1.0000</r>
       <r>   8.4834  1.0000</r>
       <r>   8.4834  1.0000</r>
       <r>   8.5056  1.0000</r>
       <r>   8.5090  1.0000</r>
       <r>   8.7760  1.0000</r>
       <r>   8.8087  1.0000</r>
       <r>   8.8087  1.0000</r>
       <r>   8.8330  1.0000</r>
       <r>   8.9809  1.0000</r>
       <r>   8.9809  1.0000</r>
       <r>   9.2622  1.0000</r>
       <r>   9.5488  1.0000</r>
       <r>   9.8044  0.0000</r>
       <r>  10.1297  0.0000</r>
       <r>  10.4202  0.0000</r>
       <r>  10.5606  0.0000</r>
       <r>  10.7767  0.0000</r>
       <r>  11.0990  0.0000</r>
       <r>  11.4787  0.0000</r>
       <r>  11.5587  0.0000</r>
       <r>  11.6711  0.0000</r>
       <r>  11.6711  0.0000</r>
       <r>  11.7920  0.0000</r>
       <r>  12.0220  0.0000</r>
       <r>  12.0696  0.0000</r>
       <r>  12.0726  0.0000</r>
       <r>  12.0727  0.0000</r>
       <r>  12.7292  0.0000</r>
       <r>  12.7292  0.0000</r>
       <r>  12.7337  0.0000</r>
       <r>  13.3987  0.0000</r>
       <r>  13.4279  0.0000</r>
       <r>  13.6951  0.0000</r>
       <r>  13.6981  0.0000</r>
      </set>
      <set comment="kpoint 9">
       <r>  -2.3206  1.0000</r>
       <r>  -1.2500  1.0000</r>
       <r>   0.1593  1.0000</r>
       <r>   0.1625  1.0000</r>
       <r>   0.1625  1.0000</r>
       <r>   0.1656  1.0000</r>
       <r>   1.2076  1.0000</r>
       <r>   1.2108  1.0000</r>
       <r>   1.2108  1.0000</r>
       <r>   1.2139  1.0000</r>
       <r>   1.5569  1.0000</r>
       <r>   2.5906  1.0000</r>
       <r>   2.5915  1.0000</r>
       <r>   2.5941  1.0000</r>
       <r>   2.5950  1.0000</r>
       <r>   3.6055  1.0000</r>
       <r>   3.6063  1.0000</r>
       <r>   3.6090  1.0000</r>
       <r>   3.6098  1.0000</r>
       <r>   3.9524  1.0000</r>
       <r>   3.9557  1.0000</r>
       <r>   3.9557  1.0000</r>
       <r>   3.9589  1.0000</r>
       <r>   4.6025  1.0000</r>
       <r>   6.3968  1.0000</r>
       <r>   6.3977  1.0000</r>
       <r>   6.4004  1.0000</r>
       <r>   6.4012  1.0000</r>
       <r>   6.6189  1.0000</r>
       <r>   6.6189  1.0000</r>
       <r>   6.9032  1.0000</r>
       <r>   6.9066  1.0000</r>
       <r>   6.9066  1.0000</r>
       <r>   6.9101  1.0000</r>
       <r>   7.5855  1.0000</r>
       <r>   7.5856  1.0000</r>
       <r>   8.2468  1.0000</r>
       <r>   8.2468  1.0000</r>
       <r>   8.8753  1.0000</r>
       <r>   8.8784  1.0000</r>
       <r>   8.8784  1.0000</r>
       <r>   8.8814  1.0000</r>
       <r>   9.1223  1.0000</r>
       <r>   9.1223  1.0000</r>
       <r>   9.3135  1.0000</r>
       <r>   9.3146  1.0000</r>
       <r>   9.3174  1.0000</r>
       <r>   9.3185  1.0000</r>
       <r>   9.8492  0.0000</r>
       <r>   9.8523  0.0000</r>
       <r>   9.8523  0.0000</r>
       <r>   9.8554  0.0000</r>
       <r>  10.1730  0.0000</r>
       <r>  10.1730  0.0000</r>
       <r>  10.2362  0.0000</r>
       <r>  10.5992  0.0000</r>
       <r>  10.6021  0.0000</r>
       <r>  10.6021  0.0000</r>
       <r>  10.6050  0.0000</r>
       <r>  11.8217  0.0000</r>
       <r>  11.8245  0.0000</r>
       <r>  11.8245  0.0000</r>
       <r>  11.8272  0.0000</r>
       <r>  12.4530  0.0000</r>
       <r>  12.4562  0.0000</r>
       <r>  12.4562  0.0000</r>
       <r>  12.4594  0.0000</r>
       <r>  12.6038  0.0000</r>
       <r>  12.6039  0.0000</r>
       <r>  13.0804  0.0000</r>
       <r>  13.0815  0.0000</r>
       <r>  13.1098  0.0000</r>
      </set>
      <set comment="kpoint 10">
       <r>  -2.2694  1.0000</r>
       <r>  -1.1992  1.0000</r>
       <r>  -0.4912  1.0000</r>
       <r>   0.2126  1.0000</r>
       <r>   0.2126  1.0000</r>
       <r>   0.5630  1.0000</r>
       <r>   0.9119  1.0000</r>
       <r>   1.2604  1.0000</r>
       <r>   1.2604  1.0000</r>
       <r>   1.6064  1.0000</r>
       <r>   1.9520  1.0000</r>
       <r>   1.9535  1.0000</r>
       <r>   1.9548  1.0000</r>
       <r>   2.9816  1.0000</r>
       <r>   2.9816  1.0000</r>
       <r>   3.3235  1.0000</r>
       <r>   3.3248  1.0000</r>
       <r>   3.3263  1.0000</r>
       <r>   4.0034  1.0000</r>
       <r>   4.0034  1.0000</r>
       <r>   4.3047  1.0000</r>
       <r>   4.3047  1.0000</r>
       <r>   4.6504  1.0000</r>
       <r>   4.6770  1.0000</r>
       <r>   5.8062  1.0000</r>
       <r>   5.8062  1.0000</r>
       <r>   5.9034  1.0000</r>
       <r>   6.3064  1.0000</r>
       <r>   6.6648  1.0000</r>
       <r>   6.8819  1.0000</r>
       <r>   6.9324  1.0000</r>
       <r>   6.9324  1.0000</r>
       <r>   7.1073  1.0000</r>
       <r>   7.1073  1.0000</r>
       <r>   7.5768  1.0000</r>
       <r>   7.6317  1.0000</r>
       <r>   8.2619  1.0000</r>
       <r>   8.2620  1.0000</r>
       <r>   8.2779  1.0000</r>
       <r>   8.2895  1.0000</r>
       <r>   8.7033  1.0000</r>
       <r>   8.7033  1.0000</r>
       <r>   8.9578  1.0000</r>
       <r>   9.0455  1.0000</r>
       <r>   9.2299  1.0000</r>
       <r>   9.2300  1.0000</r>
       <r>   9.2500  1.0000</r>
       <r>   9.5722  1.0000</r>
       <r>   9.8702  0.0000</r>
       <r>   9.8833  0.0000</r>
       <r>  10.0214  0.0000</r>
       <r>  10.0214  0.0000</r>
       <r>  10.1370  0.0000</r>
       <r>  10.2196  0.0000</r>
       <r>  10.2786  0.0000</r>
       <r>  10.5481  0.0000</r>
       <r>  10.9833  0.0000</r>
       <r>  11.2188  0.0000</r>
       <r>  11.2559  0.0000</r>
       <r>  11.2559  0.0000</r>
       <r>  11.8471  0.0000</r>
       <r>  11.8479  0.0000</r>
       <r>  11.8509  0.0000</r>
       <r>  12.4967  0.0000</r>
       <r>  12.5063  0.0000</r>
       <r>  12.5299  0.0000</r>
       <r>  12.5301  0.0000</r>
       <r>  12.6932  0.0000</r>
       <r>  12.8127  0.0000</r>
       <r>  13.1267  0.0000</r>
       <r>  13.1561  0.0000</r>
       <r>  13.1930  0.0000</r>
      </set>
      <set comment="kpoint 11">
       <r>  -2.1159  1.0000</r>
       <r>  -1.0485  1.0000</r>
       <r>  -1.0458  1.0000</r>
       <r>   0.0120  1.0000</r>
       <r>   0.3629  1.0000</r>
       <r>   0.3629  1.0000</r>
       <r>   1.4075  1.0000</r>
       <r>   1.4085  1.0000</r>
       <r>   1.4102  1.0000</r>
       <r>   1.4111  1.0000</r>
       <r>   1.7535  1.0000</r>
       <r>   1.7561  1.0000</r>
       <r>   2.4449  1.0000</r>
       <r>   2.4449  1.0000</r>
       <r>   2.7876  1.0000</r>
       <r>   2.7885  1.0000</r>
       <r>   4.1438  1.0000</r>
       <r>   4.1448  1.0000</r>
       <r>   4.1465  1.0000</r>
       <r>   4.1475  1.0000</r>
       <r>   4.7934  1.0000</r>
       <r>   4.7942  1.0000</r>
       <r>   4.8762  1.0000</r>
       <r>   4.8762  1.0000</r>
       <r>   5.4845  1.0000</r>
       <r>   5.5244  1.0000</r>
       <r>   5.5245  1.0000</r>
       <r>   5.7895  1.0000</r>
       <r>   5.7922  1.0000</r>
       <r>   6.8028  1.0000</r>
       <r>   6.8372  1.0000</r>
       <r>   6.8372  1.0000</r>
       <r>   7.4496  1.0000</r>
       <r>   7.4496  1.0000</r>
       <r>   7.7686  1.0000</r>
       <r>   7.7716  1.0000</r>
       <r>   7.9121  1.0000</r>
       <r>   7.9122  1.0000</r>
       <r>   8.1838  1.0000</r>
       <r>   8.1849  1.0000</r>
       <r>   8.1866  1.0000</r>
       <r>   8.1877  1.0000</r>
       <r>   8.2577  1.0000</r>
       <r>   8.2602  1.0000</r>
       <r>   8.4120  1.0000</r>
       <r>   8.7407  1.0000</r>
       <r>   9.7724  0.0000</r>
       <r>   9.7738  0.0000</r>
       <r>  10.3577  0.0000</r>
       <r>  10.3608  0.0000</r>
       <r>  10.4028  0.0000</r>
       <r>  10.4040  0.0000</r>
       <r>  10.6992  0.0000</r>
       <r>  10.8160  0.0000</r>
       <r>  10.8170  0.0000</r>
       <r>  10.8176  0.0000</r>
       <r>  10.8185  0.0000</r>
       <r>  11.0415  0.0000</r>
       <r>  11.0445  0.0000</r>
       <r>  11.3365  0.0000</r>
       <r>  11.3383  0.0000</r>
       <r>  11.5074  0.0000</r>
       <r>  12.2313  0.0000</r>
       <r>  12.2313  0.0000</r>
       <r>  13.0120  0.0000</r>
       <r>  13.0127  0.0000</r>
       <r>  13.2474  0.0000</r>
       <r>  13.2478  0.0000</r>
       <r>  13.2673  0.0000</r>
       <r>  13.2692  0.0000</r>
       <r>  13.6950  0.0000</r>
       <r>  13.6969  0.0000</r>
      </set>
      <set comment="kpoint 12">
       <r>  -1.8606  1.0000</r>
       <r>  -1.5040  1.0000</r>
       <r>  -0.7941  1.0000</r>
       <r>  -0.4407  1.0000</r>
       <r>   0.6129  1.0000</r>
       <r>   0.6129  1.0000</r>
       <r>   0.9620  1.0000</r>
       <r>   0.9620  1.0000</r>
       <r>   1.6569  1.0000</r>
       <r>   1.6570  1.0000</r>
       <r>   2.0013  1.0000</r>
       <r>   2.0026  1.0000</r>
       <r>   2.0030  1.0000</r>
       <r>   2.3464  1.0000</r>
       <r>   2.6878  1.0000</r>
       <r>   3.7051  1.0000</r>
       <r>   3.7114  1.0000</r>
       <r>   4.3789  1.0000</r>
       <r>   4.3789  1.0000</r>
       <r>   4.6863  1.0000</r>
       <r>   4.6863  1.0000</r>
       <r>   4.7170  1.0000</r>
       <r>   5.0324  1.0000</r>
       <r>   5.0479  1.0000</r>
       <r>   5.0479  1.0000</r>
       <r>   5.3652  1.0000</r>
       <r>   6.0087  1.0000</r>
       <r>   6.0087  1.0000</r>
       <r>   6.1870  1.0000</r>
       <r>   6.1870  1.0000</r>
       <r>   6.3700  1.0000</r>
       <r>   7.0329  1.0000</r>
       <r>   7.1437  1.0000</r>
       <r>   7.1437  1.0000</r>
       <r>   7.3145  1.0000</r>
       <r>   7.3553  1.0000</r>
       <r>   7.4641  1.0000</r>
       <r>   7.4641  1.0000</r>
       <r>   7.7674  1.0000</r>
       <r>   7.7674  1.0000</r>
       <r>   8.0010  1.0000</r>
       <r>   8.3245  1.0000</r>
       <r>   8.5863  1.0000</r>
       <r>   8.6675  1.0000</r>
       <r>   8.8061  1.0000</r>
       <r>   8.8061  1.0000</r>
       <r>   9.7806  0.0000</r>
       <r>   9.7806  0.0000</r>
       <r>   9.8355  0.0000</r>
       <r>   9.9541  0.0000</r>
       <r>  10.2740  0.0000</r>
       <r>  10.5495  0.0000</r>
       <r>  10.5921  0.0000</r>
       <r>  10.6010  0.0000</r>
       <r>  10.8435  0.0000</r>
       <r>  10.9181  0.0000</r>
       <r>  11.2391  0.0000</r>
       <r>  11.7003  0.0000</r>
       <r>  11.7003  0.0000</r>
       <r>  11.9008  0.0000</r>
       <r>  12.0373  0.0000</r>
       <r>  12.2104  0.0000</r>
       <r>  12.2200  0.0000</r>
       <r>  12.6643  0.0000</r>
       <r>  12.6643  0.0000</r>
       <r>  12.7004  0.0000</r>
       <r>  12.8844  0.0000</r>
       <r>  12.8844  0.0000</r>
       <r>  13.1946  0.0000</r>
       <r>  13.3496  0.0000</r>
       <r>  13.3498  0.0000</r>
       <r>  13.4983  0.0000</r>
      </set>
      <set comment="kpoint 13">
       <r>  -2.0648  1.0000</r>
       <r>  -1.7076  1.0000</r>
       <r>   0.4097  1.0000</r>
       <r>   0.4129  1.0000</r>
       <r>   0.4129  1.0000</r>
       <r>   0.4161  1.0000</r>
       <r>   0.7595  1.0000</r>
       <r>   0.7627  1.0000</r>
       <r>   0.7627  1.0000</r>
       <r>   0.7659  1.0000</r>
       <r>   2.4916  1.0000</r>
       <r>   2.8348  1.0000</r>
       <r>   2.8356  1.0000</r>
       <r>   2.8383  1.0000</r>
       <r>   2.8391  1.0000</r>
       <r>   3.1744  1.0000</r>
       <r>   3.1753  1.0000</r>
       <r>   3.1779  1.0000</r>
       <r>   3.1788  1.0000</r>
       <r>   3.5111  1.0000</r>
       <r>   4.8631  1.0000</r>
       <r>   4.8664  1.0000</r>
       <r>   4.8664  1.0000</r>
       <r>   4.8697  1.0000</r>
       <r>   5.8521  1.0000</r>
       <r>   5.8555  1.0000</r>
       <r>   5.8555  1.0000</r>
       <r>   5.8589  1.0000</r>
       <r>   6.8488  1.0000</r>
       <r>   6.8488  1.0000</r>
       <r>   7.1709  1.0000</r>
       <r>   7.1710  1.0000</r>
       <r>   7.2905  1.0000</r>
       <r>   7.2914  1.0000</r>
       <r>   7.2942  1.0000</r>
       <r>   7.2951  1.0000</r>
       <r>   8.2699  1.0000</r>
       <r>   8.2709  1.0000</r>
       <r>   8.2737  1.0000</r>
       <r>   8.2747  1.0000</r>
       <r>   8.4716  1.0000</r>
       <r>   8.4716  1.0000</r>
       <r>   8.7721  1.0000</r>
       <r>   8.7721  1.0000</r>
       <r>   9.1070  1.0000</r>
       <r>   9.1101  1.0000</r>
       <r>   9.1101  1.0000</r>
       <r>   9.1131  1.0000</r>
       <r>   9.4316  1.0000</r>
       <r>   9.4347  1.0000</r>
       <r>   9.4347  1.0000</r>
       <r>   9.4378  1.0000</r>
       <r>  10.9713  0.0000</r>
       <r>  10.9742  0.0000</r>
       <r>  10.9742  0.0000</r>
       <r>  10.9769  0.0000</r>
       <r>  11.0523  0.0000</r>
       <r>  11.0524  0.0000</r>
       <r>  11.3637  0.0000</r>
       <r>  11.3665  0.0000</r>
       <r>  11.3665  0.0000</r>
       <r>  11.3692  0.0000</r>
       <r>  11.7539  0.0000</r>
       <r>  12.0228  0.0000</r>
       <r>  12.0229  0.0000</r>
       <r>  13.3375  0.0000</r>
       <r>  13.3405  0.0000</r>
       <r>  13.3407  0.0000</r>
       <r>  13.3439  0.0000</r>
       <r>  13.3647  0.0000</r>
       <r>  13.3649  0.0000</r>
       <r>  13.3695  0.0000</r>
      </set>
      <set comment="kpoint 14">
       <r>  -2.0137  1.0000</r>
       <r>  -1.6567  1.0000</r>
       <r>  -0.2393  1.0000</r>
       <r>   0.1124  1.0000</r>
       <r>   0.4629  1.0000</r>
       <r>   0.4630  1.0000</r>
       <r>   0.8125  1.0000</r>
       <r>   0.8125  1.0000</r>
       <r>   1.1608  1.0000</r>
       <r>   1.5082  1.0000</r>
       <r>   2.1997  1.0000</r>
       <r>   2.1997  1.0000</r>
       <r>   2.5405  1.0000</r>
       <r>   2.5430  1.0000</r>
       <r>   2.5432  1.0000</r>
       <r>   3.5596  1.0000</r>
       <r>   3.5655  1.0000</r>
       <r>   3.5656  1.0000</r>
       <r>   3.8976  1.0000</r>
       <r>   3.8976  1.0000</r>
       <r>   4.2429  1.0000</r>
       <r>   4.9124  1.0000</r>
       <r>   4.9124  1.0000</r>
       <r>   5.2416  1.0000</r>
       <r>   5.5779  1.0000</r>
       <r>   5.8972  1.0000</r>
       <r>   5.8972  1.0000</r>
       <r>   6.1375  1.0000</r>
       <r>   6.4642  1.0000</r>
       <r>   6.5520  1.0000</r>
       <r>   6.6811  1.0000</r>
       <r>   6.6812  1.0000</r>
       <r>   6.8948  1.0000</r>
       <r>   7.2170  1.0000</r>
       <r>   7.6581  1.0000</r>
       <r>   7.6581  1.0000</r>
       <r>   8.0031  1.0000</r>
       <r>   8.0031  1.0000</r>
       <r>   8.4833  1.0000</r>
       <r>   8.4833  1.0000</r>
       <r>   8.5057  1.0000</r>
       <r>   8.5091  1.0000</r>
       <r>   8.7760  1.0000</r>
       <r>   8.8086  1.0000</r>
       <r>   8.8087  1.0000</r>
       <r>   8.8331  1.0000</r>
       <r>   8.9809  1.0000</r>
       <r>   8.9809  1.0000</r>
       <r>   9.2622  1.0000</r>
       <r>   9.5488  1.0000</r>
       <r>   9.8044  0.0000</r>
       <r>  10.1297  0.0000</r>
       <r>  10.4202  0.0000</r>
       <r>  10.5606  0.0000</r>
       <r>  10.7767  0.0000</r>
       <r>  11.0990  0.0000</r>
       <r>  11.4787  0.0000</r>
       <r>  11.5587  0.0000</r>
       <r>  11.6711  0.0000</r>
       <r>  11.6711  0.0000</r>
       <r>  11.7920  0.0000</r>
       <r>  12.0220  0.0000</r>
       <r>  12.0695  0.0000</r>
       <r>  12.0726  0.0000</r>
       <r>  12.0728  0.0000</r>
       <r>  12.7287  0.0000</r>
       <r>  12.7292  0.0000</r>
       <r>  12.7342  0.0000</r>
       <r>  13.3988  0.0000</r>
       <r>  13.4278  0.0000</r>
       <r>  13.6950  0.0000</r>
       <r>  13.6963  0.0000</r>
      </set>
      <set comment="kpoint 15">
       <r>  -1.8606  1.0000</r>
       <r>  -1.5040  1.0000</r>
       <r>  -0.7941  1.0000</r>
       <r>  -0.4407  1.0000</r>
       <r>   0.6129  1.0000</r>
       <r>   0.6129  1.0000</r>
       <r>   0.9620  1.0000</r>
       <r>   0.9620  1.0000</r>
       <r>   1.6570  1.0000</r>
       <r>   1.6570  1.0000</r>
       <r>   2.0007  1.0000</r>
       <r>   2.0026  1.0000</r>
       <r>   2.0036  1.0000</r>
       <r>   2.3465  1.0000</r>
       <r>   2.6878  1.0000</r>
       <r>   3.7051  1.0000</r>
       <r>   3.7113  1.0000</r>
       <r>   4.3789  1.0000</r>
       <r>   4.3789  1.0000</r>
       <r>   4.6862  1.0000</r>
       <r>   4.6863  1.0000</r>
       <r>   4.7170  1.0000</r>
       <r>   5.0323  1.0000</r>
       <r>   5.0479  1.0000</r>
       <r>   5.0480  1.0000</r>
       <r>   5.3652  1.0000</r>
       <r>   6.0087  1.0000</r>
       <r>   6.0087  1.0000</r>
       <r>   6.1870  1.0000</r>
       <r>   6.1870  1.0000</r>
       <r>   6.3700  1.0000</r>
       <r>   7.0329  1.0000</r>
       <r>   7.1437  1.0000</r>
       <r>   7.1437  1.0000</r>
       <r>   7.3145  1.0000</r>
       <r>   7.3552  1.0000</r>
       <r>   7.4641  1.0000</r>
       <r>   7.4641  1.0000</r>
       <r>   7.7674  1.0000</r>
       <r>   7.7674  1.0000</r>
       <r>   8.0010  1.0000</r>
       <r>   8.3245  1.0000</r>
       <r>   8.5863  1.0000</r>
       <r>   8.6674  1.0000</r>
       <r>   8.8061  1.0000</r>
       <r>   8.8061  1.0000</r>
       <r>   9.7806  0.0000</r>
       <r>   9.7806  0.0000</r>
       <r>   9.8355  0.0000</r>
       <r>   9.9541  0.0000</r>
       <r>  10.2739  0.0000</r>
       <r>  10.5495  0.0000</r>
       <r>  10.5921  0.0000</r>
       <r>  10.6010  0.0000</r>
       <r>  10.8435  0.0000</r>
       <r>  10.9181  0.0000</r>
       <r>  11.2391  0.0000</r>
       <r>  11.7003  0.0000</r>
       <r>  11.7003  0.0000</r>
       <r>  11.9008  0.0000</r>
       <r>  12.0373  0.0000</r>
       <r>  12.2104  0.0000</r>
       <r>  12.2199  0.0000</r>
       <r>  12.6642  0.0000</r>
       <r>  12.6643  0.0000</r>
       <r>  12.7005  0.0000</r>
       <r>  12.8844  0.0000</r>
       <r>  12.8844  0.0000</r>
       <r>  13.1946  0.0000</r>
       <r>  13.3496  0.0000</r>
       <r>  13.3496  0.0000</r>
       <r>  13.4719  0.0000</r>
      </set>
      <set comment="kpoint 16">
       <r>  -1.6058  1.0000</r>
       <r>  -1.2513  1.0000</r>
       <r>  -1.2487  1.0000</r>
       <r>  -0.8953  1.0000</r>
       <r>   0.8624  1.0000</r>
       <r>   0.8624  1.0000</r>
       <r>   1.2089  1.0000</r>
       <r>   1.2099  1.0000</r>
       <r>   1.2116  1.0000</r>
       <r>   1.2126  1.0000</r>
       <r>   1.5580  1.0000</r>
       <r>   1.5580  1.0000</r>
       <r>   2.9311  1.0000</r>
       <r>   2.9338  1.0000</r>
       <r>   3.2736  1.0000</r>
       <r>   3.2744  1.0000</r>
       <r>   3.9467  1.0000</r>
       <r>   3.9475  1.0000</r>
       <r>   4.2835  1.0000</r>
       <r>   4.2862  1.0000</r>
       <r>   5.2541  1.0000</r>
       <r>   5.2549  1.0000</r>
       <r>   5.2568  1.0000</r>
       <r>   5.2576  1.0000</r>
       <r>   5.3443  1.0000</r>
       <r>   5.3444  1.0000</r>
       <r>   5.9990  1.0000</r>
       <r>   5.9990  1.0000</r>
       <r>   6.0060  1.0000</r>
       <r>   6.0060  1.0000</r>
       <r>   6.6599  1.0000</r>
       <r>   6.6600  1.0000</r>
       <r>   6.7454  1.0000</r>
       <r>   6.7466  1.0000</r>
       <r>   6.7481  1.0000</r>
       <r>   6.7494  1.0000</r>
       <r>   7.2250  1.0000</r>
       <r>   7.2632  1.0000</r>
       <r>   7.5843  1.0000</r>
       <r>   7.5873  1.0000</r>
       <r>   7.9088  1.0000</r>
       <r>   8.0793  1.0000</r>
       <r>   8.0819  1.0000</r>
       <r>   8.5705  1.0000</r>
       <r>   9.6499  1.0000</r>
       <r>   9.6512  1.0000</r>
       <r>   9.6967  0.9998</r>
       <r>   9.6967  0.9998</r>
       <r>   9.7888  0.0000</r>
       <r>   9.8794  0.0000</r>
       <r>  10.6661  0.0000</r>
       <r>  10.6671  0.0000</r>
       <r>  10.6677  0.0000</r>
       <r>  10.6686  0.0000</r>
       <r>  11.4710  0.0000</r>
       <r>  11.4742  0.0000</r>
       <r>  11.6342  0.0000</r>
       <r>  11.6342  0.0000</r>
       <r>  11.7986  0.0000</r>
       <r>  11.8005  0.0000</r>
       <r>  12.0557  0.0000</r>
       <r>  12.0573  0.0000</r>
       <r>  12.1745  0.0000</r>
       <r>  12.1775  0.0000</r>
       <r>  12.4439  0.0000</r>
       <r>  12.4458  0.0000</r>
       <r>  12.7714  0.0000</r>
       <r>  12.7746  0.0000</r>
       <r>  13.2740  0.0000</r>
       <r>  13.2758  0.0000</r>
       <r>  13.5049  0.0000</r>
       <r>  13.5079  0.0000</r>
      </set>
      <set comment="kpoint 17">
       <r>  -2.4230  1.0000</r>
       <r>  -0.6425  1.0000</r>
       <r>  -0.6425  1.0000</r>
       <r>   0.0604  1.0000</r>
       <r>   0.0639  1.0000</r>
       <r>   0.7624  1.0000</r>
       <r>   0.7624  1.0000</r>
       <r>   1.1114  1.0000</r>
       <r>   1.8027  1.0000</r>
       <r>   1.8046  1.0000</r>
       <r>   1.8062  1.0000</r>
       <r>   1.8081  1.0000</r>
       <r>   2.4948  1.0000</r>
       <r>   2.4948  1.0000</r>
       <r>   3.1768  1.0000</r>
       <r>   3.1787  1.0000</r>
       <r>   3.1803  1.0000</r>
       <r>   3.1823  1.0000</r>
       <r>   3.5091  1.0000</r>
       <r>   3.5125  1.0000</r>
       <r>   3.8595  1.0000</r>
       <r>   4.5952  1.0000</r>
       <r>   4.5952  1.0000</r>
       <r>   5.2309  1.0000</r>
       <r>   5.2310  1.0000</r>
       <r>   5.7626  1.0000</r>
       <r>   5.7626  1.0000</r>
       <r>   6.3026  1.0000</r>
       <r>   6.3061  1.0000</r>
       <r>   6.5270  1.0000</r>
       <r>   7.3873  1.0000</r>
       <r>   7.3873  1.0000</r>
       <r>   7.8414  1.0000</r>
       <r>   7.8414  1.0000</r>
       <r>   8.1390  1.0000</r>
       <r>   8.1391  1.0000</r>
       <r>   8.1545  1.0000</r>
       <r>   8.2616  1.0000</r>
       <r>   8.2616  1.0000</r>
       <r>   8.5905  1.0000</r>
       <r>   8.5905  1.0000</r>
       <r>   8.9120  1.0000</r>
       <r>   8.9120  1.0000</r>
       <r>   9.4329  1.0000</r>
       <r>   9.4329  1.0000</r>
       <r>   9.7423  0.0019</r>
       <r>   9.7446  0.0006</r>
       <r>   9.7465  0.0002</r>
       <r>   9.7485  0.0001</r>
       <r>   9.7602  0.0000</r>
       <r>   9.8718  0.0000</r>
       <r>   9.8718  0.0000</r>
       <r>  10.1258  0.0000</r>
       <r>  10.1258  0.0000</r>
       <r>  10.6531  0.0000</r>
       <r>  10.6531  0.0000</r>
       <r>  11.0528  0.0000</r>
       <r>  11.0537  0.0000</r>
       <r>  11.0571  0.0000</r>
       <r>  11.0573  0.0000</r>
       <r>  11.0601  0.0000</r>
       <r>  11.0612  0.0000</r>
       <r>  11.7478  0.0000</r>
       <r>  12.1875  0.0000</r>
       <r>  12.1875  0.0000</r>
       <r>  12.3635  0.0000</r>
       <r>  12.3796  0.0000</r>
       <r>  12.3797  0.0000</r>
       <r>  12.5316  0.0000</r>
       <r>  12.5316  0.0000</r>
       <r>  13.0543  0.0000</r>
       <r>  13.0603  0.0000</r>
      </set>
      <set comment="kpoint 18">
       <r>  -2.3718  1.0000</r>
       <r>  -0.5939  1.0000</r>
       <r>  -0.5920  1.0000</r>
       <r>  -0.5902  1.0000</r>
       <r>   0.8104  1.0000</r>
       <r>   0.8123  1.0000</r>
       <r>   0.8141  1.0000</r>
       <r>   1.1593  1.0000</r>
       <r>   1.1611  1.0000</r>
       <r>   1.1630  1.0000</r>
       <r>   2.5408  1.0000</r>
       <r>   2.5425  1.0000</r>
       <r>   2.5438  1.0000</r>
       <r>   2.5438  1.0000</r>
       <r>   2.5451  1.0000</r>
       <r>   2.5468  1.0000</r>
       <r>   2.8840  1.0000</r>
       <r>   3.9053  1.0000</r>
       <r>   3.9073  1.0000</r>
       <r>   3.9092  1.0000</r>
       <r>   4.2084  1.0000</r>
       <r>   4.2089  1.0000</r>
       <r>   4.2095  1.0000</r>
       <r>   5.7099  1.0000</r>
       <r>   5.7105  1.0000</r>
       <r>   5.7111  1.0000</r>
       <r>   5.8090  1.0000</r>
       <r>   5.8096  1.0000</r>
       <r>   5.8101  1.0000</r>
       <r>   7.0135  1.0000</r>
       <r>   7.4169  1.0000</r>
       <r>   7.4185  1.0000</r>
       <r>   7.4200  1.0000</r>
       <r>   7.4200  1.0000</r>
       <r>   7.4216  1.0000</r>
       <r>   7.4231  1.0000</r>
       <r>   8.7529  1.0000</r>
       <r>   8.7533  1.0000</r>
       <r>   8.7551  1.0000</r>
       <r>   8.7551  1.0000</r>
       <r>   8.7569  1.0000</r>
       <r>   8.7573  1.0000</r>
       <r>   8.9554  1.0000</r>
       <r>   8.9560  1.0000</r>
       <r>   8.9566  1.0000</r>
       <r>   9.1360  1.0000</r>
       <r>   9.1379  1.0000</r>
       <r>   9.1398  1.0000</r>
       <r>  10.4436  0.0000</r>
       <r>  10.4447  0.0000</r>
       <r>  10.4460  0.0000</r>
       <r>  10.4460  0.0000</r>
       <r>  10.4473  0.0000</r>
       <r>  10.4483  0.0000</r>
       <r>  10.4897  0.0000</r>
       <r>  10.4918  0.0000</r>
       <r>  10.4927  0.0000</r>
       <r>  10.4928  0.0000</r>
       <r>  10.4939  0.0000</r>
       <r>  10.4959  0.0000</r>
       <r>  11.7559  0.0000</r>
       <r>  11.7571  0.0000</r>
       <r>  11.7583  0.0000</r>
       <r>  12.4538  0.0000</r>
       <r>  12.4550  0.0000</r>
       <r>  12.4562  0.0000</r>
       <r>  12.6441  0.0000</r>
       <r>  12.6444  0.0000</r>
       <r>  12.6455  0.0000</r>
       <r>  12.6455  0.0000</r>
       <r>  12.6466  0.0000</r>
       <r>  12.6469  0.0000</r>
      </set>
      <set comment="kpoint 19">
       <r>  -2.2182  1.0000</r>
       <r>  -1.1485  1.0000</r>
       <r>  -0.4408  1.0000</r>
       <r>  -0.4407  1.0000</r>
       <r>   0.6130  1.0000</r>
       <r>   0.6130  1.0000</r>
       <r>   0.9617  1.0000</r>
       <r>   0.9617  1.0000</r>
       <r>   1.3102  1.0000</r>
       <r>   1.6559  1.0000</r>
       <r>   2.0026  1.0000</r>
       <r>   2.0026  1.0000</r>
       <r>   2.3467  1.0000</r>
       <r>   2.6906  1.0000</r>
       <r>   2.6906  1.0000</r>
       <r>   3.3735  1.0000</r>
       <r>   3.3735  1.0000</r>
       <r>   3.7042  1.0000</r>
       <r>   3.7042  1.0000</r>
       <r>   4.0498  1.0000</r>
       <r>   4.6982  1.0000</r>
       <r>   4.7231  1.0000</r>
       <r>   4.7231  1.0000</r>
       <r>   4.7826  1.0000</r>
       <r>   5.4270  1.0000</r>
       <r>   5.9501  1.0000</r>
       <r>   5.9501  1.0000</r>
       <r>   6.3483  1.0000</r>
       <r>   6.3483  1.0000</r>
       <r>   6.4942  1.0000</r>
       <r>   6.4943  1.0000</r>
       <r>   6.9250  1.0000</r>
       <r>   6.9251  1.0000</r>
       <r>   7.3852  1.0000</r>
       <r>   7.3852  1.0000</r>
       <r>   7.8191  1.0000</r>
       <r>   7.8945  1.0000</r>
       <r>   7.8946  1.0000</r>
       <r>   8.0927  1.0000</r>
       <r>   8.6246  1.0000</r>
       <r>   8.6246  1.0000</r>
       <r>   8.9285  1.0000</r>
       <r>   8.9286  1.0000</r>
       <r>   9.0855  1.0000</r>
       <r>   9.0855  1.0000</r>
       <r>   9.3901  1.0000</r>
       <r>   9.3902  1.0000</r>
       <r>   9.4081  1.0000</r>
       <r>   9.4082  1.0000</r>
       <r>   9.9290  0.0000</r>
       <r>   9.9290  0.0000</r>
       <r>  10.2676  0.0000</r>
       <r>  10.2676  0.0000</r>
       <r>  10.3190  0.0000</r>
       <r>  10.7266  0.0000</r>
       <r>  10.8225  0.0000</r>
       <r>  10.8225  0.0000</r>
       <r>  11.2377  0.0000</r>
       <r>  11.2377  0.0000</r>
       <r>  11.4896  0.0000</r>
       <r>  11.4896  0.0000</r>
       <r>  11.9305  0.0000</r>
       <r>  11.9305  0.0000</r>
       <r>  12.5466  0.0000</r>
       <r>  12.5469  0.0000</r>
       <r>  12.5495  0.0000</r>
       <r>  12.5499  0.0000</r>
       <r>  13.0877  0.0000</r>
       <r>  13.0877  0.0000</r>
       <r>  13.2035  0.0000</r>
       <r>  13.2042  0.0000</r>
       <r>  13.2603  0.0000</r>
      </set>
      <set comment="kpoint 20">
       <r>  -1.9626  1.0000</r>
       <r>  -1.6058  1.0000</r>
       <r>  -0.1890  1.0000</r>
       <r>  -0.1890  1.0000</r>
       <r>   0.1626  1.0000</r>
       <r>   0.1626  1.0000</r>
       <r>   1.2104  1.0000</r>
       <r>   1.2104  1.0000</r>
       <r>   1.5571  1.0000</r>
       <r>   1.5577  1.0000</r>
       <r>   1.5586  1.0000</r>
       <r>   1.9040  1.0000</r>
       <r>   2.5897  1.0000</r>
       <r>   2.9344  1.0000</r>
       <r>   2.9344  1.0000</r>
       <r>   3.2737  1.0000</r>
       <r>   3.2737  1.0000</r>
       <r>   3.6082  1.0000</r>
       <r>   4.2833  1.0000</r>
       <r>   4.2905  1.0000</r>
       <r>   4.2905  1.0000</r>
       <r>   4.5915  1.0000</r>
       <r>   5.2874  1.0000</r>
       <r>   5.2874  1.0000</r>
       <r>   5.6197  1.0000</r>
       <r>   5.6197  1.0000</r>
       <r>   6.0912  1.0000</r>
       <r>   6.1839  1.0000</r>
       <r>   6.1839  1.0000</r>
       <r>   6.5097  1.0000</r>
       <r>   6.5097  1.0000</r>
       <r>   6.5760  1.0000</r>
       <r>   6.5760  1.0000</r>
       <r>   7.0493  1.0000</r>
       <r>   7.3870  1.0000</r>
       <r>   7.3870  1.0000</r>
       <r>   7.9027  1.0000</r>
       <r>   7.9028  1.0000</r>
       <r>   8.2086  1.0000</r>
       <r>   8.2087  1.0000</r>
       <r>   8.3654  1.0000</r>
       <r>   8.3654  1.0000</r>
       <r>   8.7139  1.0000</r>
       <r>   9.1722  1.0000</r>
       <r>   9.1722  1.0000</r>
       <r>   9.2891  1.0000</r>
       <r>   9.2891  1.0000</r>
       <r>   9.5045  1.0000</r>
       <r>   9.5046  1.0000</r>
       <r>   9.5143  1.0000</r>
       <r>   9.5143  1.0000</r>
       <r>   9.6893  1.0000</r>
       <r>  10.6536  0.0000</r>
       <r>  10.6536  0.0000</r>
       <r>  11.1280  0.0000</r>
       <r>  11.1280  0.0000</r>
       <r>  11.4899  0.0000</r>
       <r>  11.4899  0.0000</r>
       <r>  11.5354  0.0000</r>
       <r>  11.5354  0.0000</r>
       <r>  11.8239  0.0000</r>
       <r>  12.1182  0.0000</r>
       <r>  12.1182  0.0000</r>
       <r>  12.2098  0.0000</r>
       <r>  12.2098  0.0000</r>
       <r>  12.7130  0.0000</r>
       <r>  12.7131  0.0000</r>
       <r>  13.0827  0.0000</r>
       <r>  13.0827  0.0000</r>
       <r>  13.3956  0.0000</r>
       <r>  13.4306  0.0000</r>
       <r>  13.4306  0.0000</r>
      </set>
      <set comment="kpoint 21">
       <r>  -2.2694  1.0000</r>
       <r>  -1.1992  1.0000</r>
       <r>  -0.4912  1.0000</r>
       <r>   0.2109  1.0000</r>
       <r>   0.2143  1.0000</r>
       <r>   0.5630  1.0000</r>
       <r>   0.9119  1.0000</r>
       <r>   1.2587  1.0000</r>
       <r>   1.2622  1.0000</r>
       <r>   1.6064  1.0000</r>
       <r>   1.9516  1.0000</r>
       <r>   1.9533  1.0000</r>
       <r>   1.9554  1.0000</r>
       <r>   2.9798  1.0000</r>
       <r>   2.9833  1.0000</r>
       <r>   3.3229  1.0000</r>
       <r>   3.3250  1.0000</r>
       <r>   3.3267  1.0000</r>
       <r>   4.0016  1.0000</r>
       <r>   4.0051  1.0000</r>
       <r>   4.3031  1.0000</r>
       <r>   4.3063  1.0000</r>
       <r>   4.6504  1.0000</r>
       <r>   4.6770  1.0000</r>
       <r>   5.8045  1.0000</r>
       <r>   5.8078  1.0000</r>
       <r>   5.9034  1.0000</r>
       <r>   6.3064  1.0000</r>
       <r>   6.6649  1.0000</r>
       <r>   6.8819  1.0000</r>
       <r>   6.9307  1.0000</r>
       <r>   6.9341  1.0000</r>
       <r>   7.1055  1.0000</r>
       <r>   7.1092  1.0000</r>
       <r>   7.5767  1.0000</r>
       <r>   7.6317  1.0000</r>
       <r>   8.2601  1.0000</r>
       <r>   8.2638  1.0000</r>
       <r>   8.2779  1.0000</r>
       <r>   8.2895  1.0000</r>
       <r>   8.7014  1.0000</r>
       <r>   8.7053  1.0000</r>
       <r>   8.9578  1.0000</r>
       <r>   9.0455  1.0000</r>
       <r>   9.2279  1.0000</r>
       <r>   9.2320  1.0000</r>
       <r>   9.2500  1.0000</r>
       <r>   9.5722  1.0000</r>
       <r>   9.8702  0.0000</r>
       <r>   9.8832  0.0000</r>
       <r>  10.0194  0.0000</r>
       <r>  10.0234  0.0000</r>
       <r>  10.1370  0.0000</r>
       <r>  10.2196  0.0000</r>
       <r>  10.2787  0.0000</r>
       <r>  10.5482  0.0000</r>
       <r>  10.9833  0.0000</r>
       <r>  11.2187  0.0000</r>
       <r>  11.2550  0.0000</r>
       <r>  11.2568  0.0000</r>
       <r>  11.8454  0.0000</r>
       <r>  11.8491  0.0000</r>
       <r>  11.8514  0.0000</r>
       <r>  12.4968  0.0000</r>
       <r>  12.5063  0.0000</r>
       <r>  12.5284  0.0000</r>
       <r>  12.5316  0.0000</r>
       <r>  12.6932  0.0000</r>
       <r>  12.8127  0.0000</r>
       <r>  13.1266  0.0000</r>
       <r>  13.1556  0.0000</r>
       <r>  13.1906  0.0000</r>
      </set>
      <set comment="kpoint 22">
       <r>  -2.2182  1.0000</r>
       <r>  -1.1485  1.0000</r>
       <r>  -0.4421  1.0000</r>
       <r>  -0.4394  1.0000</r>
       <r>   0.6117  1.0000</r>
       <r>   0.6143  1.0000</r>
       <r>   0.9604  1.0000</r>
       <r>   0.9631  1.0000</r>
       <r>   1.3102  1.0000</r>
       <r>   1.6559  1.0000</r>
       <r>   2.0012  1.0000</r>
       <r>   2.0039  1.0000</r>
       <r>   2.3467  1.0000</r>
       <r>   2.6902  1.0000</r>
       <r>   2.6910  1.0000</r>
       <r>   3.3721  1.0000</r>
       <r>   3.3749  1.0000</r>
       <r>   3.7038  1.0000</r>
       <r>   3.7046  1.0000</r>
       <r>   4.0498  1.0000</r>
       <r>   4.6982  1.0000</r>
       <r>   4.7217  1.0000</r>
       <r>   4.7245  1.0000</r>
       <r>   4.7826  1.0000</r>
       <r>   5.4270  1.0000</r>
       <r>   5.9497  1.0000</r>
       <r>   5.9505  1.0000</r>
       <r>   6.3468  1.0000</r>
       <r>   6.3497  1.0000</r>
       <r>   6.4938  1.0000</r>
       <r>   6.4947  1.0000</r>
       <r>   6.9247  1.0000</r>
       <r>   6.9254  1.0000</r>
       <r>   7.3838  1.0000</r>
       <r>   7.3866  1.0000</r>
       <r>   7.8191  1.0000</r>
       <r>   7.8931  1.0000</r>
       <r>   7.8960  1.0000</r>
       <r>   8.0927  1.0000</r>
       <r>   8.6232  1.0000</r>
       <r>   8.6259  1.0000</r>
       <r>   8.9277  1.0000</r>
       <r>   8.9294  1.0000</r>
       <r>   9.0850  1.0000</r>
       <r>   9.0860  1.0000</r>
       <r>   9.3893  1.0000</r>
       <r>   9.3910  1.0000</r>
       <r>   9.4076  1.0000</r>
       <r>   9.4087  1.0000</r>
       <r>   9.9282  0.0000</r>
       <r>   9.9298  0.0000</r>
       <r>  10.2674  0.0000</r>
       <r>  10.2677  0.0000</r>
       <r>  10.3190  0.0000</r>
       <r>  10.7266  0.0000</r>
       <r>  10.8214  0.0000</r>
       <r>  10.8235  0.0000</r>
       <r>  11.2363  0.0000</r>
       <r>  11.2391  0.0000</r>
       <r>  11.4880  0.0000</r>
       <r>  11.4911  0.0000</r>
       <r>  11.9296  0.0000</r>
       <r>  11.9314  0.0000</r>
       <r>  12.5465  0.0000</r>
       <r>  12.5471  0.0000</r>
       <r>  12.5488  0.0000</r>
       <r>  12.5504  0.0000</r>
       <r>  13.0868  0.0000</r>
       <r>  13.0887  0.0000</r>
       <r>  13.2023  0.0000</r>
       <r>  13.2054  0.0000</r>
       <r>  13.2602  0.0000</r>
      </set>
      <set comment="kpoint 23">
       <r>  -2.0648  1.0000</r>
       <r>  -0.9978  1.0000</r>
       <r>  -0.9952  1.0000</r>
       <r>  -0.2896  1.0000</r>
       <r>   0.0622  1.0000</r>
       <r>   0.7614  1.0000</r>
       <r>   0.7641  1.0000</r>
       <r>   1.1110  1.0000</r>
       <r>   1.8026  1.0000</r>
       <r>   1.8048  1.0000</r>
       <r>   1.8063  1.0000</r>
       <r>   2.1490  1.0000</r>
       <r>   2.1517  1.0000</r>
       <r>   2.8365  1.0000</r>
       <r>   2.8373  1.0000</r>
       <r>   3.1763  1.0000</r>
       <r>   3.5171  1.0000</r>
       <r>   3.5198  1.0000</r>
       <r>   4.4947  1.0000</r>
       <r>   4.4954  1.0000</r>
       <r>   4.8411  1.0000</r>
       <r>   4.8419  1.0000</r>
       <r>   4.8577  1.0000</r>
       <r>   4.8604  1.0000</r>
       <r>   5.5264  1.0000</r>
       <r>   5.8350  1.0000</r>
       <r>   5.8377  1.0000</r>
       <r>   5.9981  1.0000</r>
       <r>   5.9989  1.0000</r>
       <r>   6.0901  1.0000</r>
       <r>   6.4608  1.0000</r>
       <r>   6.4616  1.0000</r>
       <r>   7.0445  1.0000</r>
       <r>   7.0475  1.0000</r>
       <r>   7.2953  1.0000</r>
       <r>   7.5798  1.0000</r>
       <r>   7.5825  1.0000</r>
       <r>   7.9130  1.0000</r>
       <r>   7.9139  1.0000</r>
       <r>   8.1164  1.0000</r>
       <r>   8.4675  1.0000</r>
       <r>   8.4695  1.0000</r>
       <r>   8.6236  1.0000</r>
       <r>   8.8868  1.0000</r>
       <r>   8.8896  1.0000</r>
       <r>   9.1969  1.0000</r>
       <r>   9.6823  1.0000</r>
       <r>   9.6854  1.0000</r>
       <r>  10.2031  0.0000</r>
       <r>  10.2047  0.0000</r>
       <r>  10.4112  0.0000</r>
       <r>  10.4133  0.0000</r>
       <r>  10.4333  0.0000</r>
       <r>  10.4345  0.0000</r>
       <r>  10.7184  0.0000</r>
       <r>  10.7199  0.0000</r>
       <r>  11.3652  0.0000</r>
       <r>  11.3677  0.0000</r>
       <r>  11.4147  0.0000</r>
       <r>  11.5211  0.0000</r>
       <r>  11.5227  0.0000</r>
       <r>  11.5673  0.0000</r>
       <r>  12.0295  0.0000</r>
       <r>  12.0299  0.0000</r>
       <r>  12.7004  0.0000</r>
       <r>  12.7017  0.0000</r>
       <r>  13.0797  0.0000</r>
       <r>  13.2339  0.0000</r>
       <r>  13.2354  0.0000</r>
       <r>  13.3414  0.0000</r>
       <r>  13.4960  0.0000</r>
       <r>  13.5024  0.0000</r>
      </set>
      <set comment="kpoint 24">
       <r>  -1.8096  1.0000</r>
       <r>  -1.4532  1.0000</r>
       <r>  -0.7436  1.0000</r>
       <r>  -0.3903  1.0000</r>
       <r>  -0.0382  1.0000</r>
       <r>   0.3129  1.0000</r>
       <r>   1.0119  1.0000</r>
[...]
       <r>   8.6674  1.0000</r>
       <r>   8.8042  1.0000</r>
       <r>   8.8080  1.0000</r>
       <r>   9.7787  0.0000</r>
       <r>   9.7826  0.0000</r>
       <r>   9.8355  0.0000</r>
       <r>   9.9541  0.0000</r>
       <r>  10.2739  0.0000</r>
       <r>  10.5495  0.0000</r>
       <r>  10.5917  0.0000</r>
       <r>  10.6014  0.0000</r>
       <r>  10.8435  0.0000</r>
       <r>  10.9182  0.0000</r>
       <r>  11.2391  0.0000</r>
       <r>  11.6982  0.0000</r>
       <r>  11.7023  0.0000</r>
       <r>  11.9008  0.0000</r>
       <r>  12.0373  0.0000</r>
       <r>  12.2104  0.0000</r>
       <r>  12.2200  0.0000</r>
       <r>  12.6622  0.0000</r>
       <r>  12.6664  0.0000</r>
       <r>  12.7004  0.0000</r>
       <r>  12.8833  0.0000</r>
       <r>  12.8856  0.0000</r>
       <r>  13.1946  0.0000</r>
       <r>  13.3482  0.0000</r>
       <r>  13.3514  0.0000</r>
       <r>  13.4744  0.0000</r>
      </set>
      <set comment="kpoint 34">
       <r>  -1.8096  1.0000</r>
       <r>  -1.4532  1.0000</r>
       <r>  -0.7436  1.0000</r>
       <r>  -0.3904  1.0000</r>
       <r>  -0.0382  1.0000</r>
       <r>   0.3129  1.0000</r>
       <r>   1.0119  1.0000</r>
       <r>   1.3586  1.0000</r>
       <r>   1.3606  1.0000</r>
       <r>   1.7062  1.0000</r>
       <r>   2.0510  1.0000</r>
       <r>   2.3953  1.0000</r>
       <r>   2.3964  1.0000</r>
       <r>   2.7366  1.0000</r>
       <r>   2.7388  1.0000</r>
       <r>   3.7535  1.0000</r>
       <r>   3.7583  1.0000</r>
       <r>   3.7598  1.0000</r>
       <r>   4.0897  1.0000</r>
       <r>   4.4322  1.0000</r>
       <r>   4.7642  1.0000</r>
       <r>   5.0679  1.0000</r>
       <r>   5.0798  1.0000</r>
       <r>   5.1571  1.0000</r>
       <r>   5.4120  1.0000</r>
       <r>   5.4221  1.0000</r>
       <r>   5.7314  1.0000</r>
       <r>   5.8145  1.0000</r>
       <r>   6.3225  1.0000</r>
       <r>   6.3935  1.0000</r>
       <r>   6.4650  1.0000</r>
       <r>   6.5582  1.0000</r>
       <r>   6.6447  1.0000</r>
       <r>   6.8708  1.0000</r>
       <r>   7.1034  1.0000</r>
       <r>   7.1066  1.0000</r>
       <r>   7.1865  1.0000</r>
       <r>   7.6405  1.0000</r>
       <r>   7.7197  1.0000</r>
       <r>   7.8453  1.0000</r>
       <r>   8.1352  1.0000</r>
       <r>   8.1892  1.0000</r>
       <r>   8.4631  1.0000</r>
       <r>   9.1375  1.0000</r>
       <r>   9.1651  1.0000</r>
       <r>   9.3233  1.0000</r>
       <r>   9.5158  1.0000</r>
       <r>   9.9513  0.0000</r>
       <r>  10.2057  0.0000</r>
       <r>  10.2914  0.0000</r>
       <r>  10.4189  0.0000</r>
       <r>  10.4880  0.0000</r>
       <r>  10.5831  0.0000</r>
       <r>  10.6528  0.0000</r>
       <r>  10.6546  0.0000</r>
       <r>  10.9876  0.0000</r>
       <r>  11.0868  0.0000</r>
       <r>  11.2117  0.0000</r>
       <r>  11.5973  0.0000</r>
       <r>  11.7312  0.0000</r>
       <r>  11.8896  0.0000</r>
       <r>  12.0505  0.0000</r>
       <r>  12.4039  0.0000</r>
       <r>  12.4074  0.0000</r>
       <r>  12.5296  0.0000</r>
       <r>  12.5572  0.0000</r>
       <r>  12.7901  0.0000</r>
       <r>  12.9873  0.0000</r>
       <r>  13.0409  0.0000</r>
       <r>  13.1751  0.0000</r>
       <r>  13.3473  0.0000</r>
       <r>  13.3670  0.0000</r>
      </set>
      <set comment="kpoint 35">
       <r>  -1.6567  1.0000</r>
       <r>  -1.3008  1.0000</r>
       <r>  -0.5934  1.0000</r>
       <r>  -0.5907  1.0000</r>
       <r>  -0.2406  1.0000</r>
       <r>  -0.2380  1.0000</r>
       <r>   0.4631  1.0000</r>
       <r>   0.8127  1.0000</r>
       <r>   2.1974  1.0000</r>
       <r>   2.2001  1.0000</r>
       <r>   2.5414  1.0000</r>
       <r>   2.5441  1.0000</r>
       <r>   2.8835  1.0000</r>
       <r>   3.2259  1.0000</r>
       <r>   3.2267  1.0000</r>
       <r>   3.5639  1.0000</r>
       <r>   3.5648  1.0000</r>
       <r>   3.8986  1.0000</r>
       <r>   3.9024  1.0000</r>
       <r>   3.9052  1.0000</r>
       <r>   4.8743  1.0000</r>
       <r>   4.9036  1.0000</r>
       <r>   4.9064  1.0000</r>
       <r>   5.2212  1.0000</r>
       <r>   5.2221  1.0000</r>
       <r>   5.5513  1.0000</r>
       <r>   5.5521  1.0000</r>
       <r>   5.6249  1.0000</r>
       <r>   6.1761  1.0000</r>
       <r>   6.1788  1.0000</r>
       <r>   6.2768  1.0000</r>
       <r>   6.2796  1.0000</r>
       <r>   6.2883  1.0000</r>
       <r>   6.3800  1.0000</r>
       <r>   6.9217  1.0000</r>
       <r>   6.9244  1.0000</r>
       <r>   7.6629  1.0000</r>
       <r>   7.6658  1.0000</r>
       <r>   7.6676  1.0000</r>
       <r>   7.6686  1.0000</r>
       <r>   8.6426  1.0000</r>
       <r>   8.6437  1.0000</r>
       <r>   8.9150  1.0000</r>
       <r>   8.9166  1.0000</r>
       <r>   9.2528  1.0000</r>
       <r>   9.2543  1.0000</r>
       <r>   9.4926  1.0000</r>
       <r>   9.4939  1.0000</r>
       <r>  10.2586  0.0000</r>
       <r>  10.2604  0.0000</r>
       <r>  10.3158  0.0000</r>
       <r>  10.5626  0.0000</r>
       <r>  10.5655  0.0000</r>
       <r>  11.2132  0.0000</r>
       <r>  11.2133  0.0000</r>
       <r>  11.2850  0.0000</r>
       <r>  11.3297  0.0000</r>
       <r>  11.3300  0.0000</r>
       <r>  11.5236  0.0000</r>
       <r>  11.5266  0.0000</r>
       <r>  11.5708  0.0000</r>
       <r>  11.9455  0.0000</r>
       <r>  11.9473  0.0000</r>
       <r>  12.0865  0.0000</r>
       <r>  12.2949  0.0000</r>
       <r>  12.2966  0.0000</r>
       <r>  12.4392  0.0000</r>
       <r>  13.0424  0.0000</r>
       <r>  13.0452  0.0000</r>
       <r>  13.1957  0.0000</r>
       <r>  13.1972  0.0000</r>
       <r>  13.8567  0.0000</r>
      </set>
      <set comment="kpoint 36">
       <r>  -1.4024  1.0000</r>
       <r>  -1.0485  1.0000</r>
       <r>  -1.0459  1.0000</r>
       <r>  -0.6930  1.0000</r>
       <r>  -0.3400  1.0000</r>
       <r>   0.0107  1.0000</r>
       <r>   0.0134  1.0000</r>
       <r>   0.3630  1.0000</r>
       <r>   2.4445  1.0000</r>
       <r>   2.7861  1.0000</r>
       <r>   2.7888  1.0000</r>
       <r>   3.1260  1.0000</r>
       <r>   3.1282  1.0000</r>
       <r>   3.1297  1.0000</r>
       <r>   3.4677  1.0000</r>
       <r>   3.4685  1.0000</r>
       <r>   4.1390  1.0000</r>
       <r>   4.1400  1.0000</r>
       <r>   4.1416  1.0000</r>
       <r>   4.1442  1.0000</r>
       <r>   4.4714  1.0000</r>
       <r>   4.4723  1.0000</r>
       <r>   4.4748  1.0000</r>
       <r>   4.4774  1.0000</r>
       <r>   5.1352  1.0000</r>
       <r>   5.1360  1.0000</r>
       <r>   5.4372  1.0000</r>
       <r>   5.4400  1.0000</r>
       <r>   5.4567  1.0000</r>
       <r>   5.7793  1.0000</r>
       <r>   5.7821  1.0000</r>
       <r>   6.0827  1.0000</r>
       <r>   6.9409  1.0000</r>
       <r>   6.9437  1.0000</r>
       <r>   7.2464  1.0000</r>
       <r>   7.2473  1.0000</r>
       <r>   7.5780  1.0000</r>
       <r>   7.8865  1.0000</r>
       <r>   7.8874  1.0000</r>
       <r>   8.2148  1.0000</r>
       <r>   8.2176  1.0000</r>
       <r>   8.5037  1.0000</r>
       <r>   8.5053  1.0000</r>
       <r>   8.5579  1.0000</r>
       <r>   9.4167  1.0000</r>
       <r>   9.5287  1.0000</r>
       <r>   9.5302  1.0000</r>
       <r>   9.7798  0.0000</r>
       <r>   9.7829  0.0000</r>
       <r>  10.1300  0.0000</r>
       <r>  10.1312  0.0000</r>
       <r>  10.4959  0.0000</r>
       <r>  10.7050  0.0000</r>
       <r>  10.7064  0.0000</r>
       <r>  11.0820  0.0000</r>
       <r>  11.0850  0.0000</r>
       <r>  11.2024  0.0000</r>
       <r>  11.2782  0.0000</r>
       <r>  11.5578  0.0000</r>
       <r>  11.5601  0.0000</r>
       <r>  11.8829  0.0000</r>
       <r>  12.1676  0.0000</r>
       <r>  12.1691  0.0000</r>
       <r>  12.5026  0.0000</r>
       <r>  12.5033  0.0000</r>
       <r>  12.7515  0.0000</r>
       <r>  12.7534  0.0000</r>
       <r>  13.1313  0.0000</r>
       <r>  13.4026  0.0000</r>
       <r>  13.4033  0.0000</r>
       <r>  13.7719  0.0000</r>
       <r>  13.7734  0.0000</r>
      </set>
      <set comment="kpoint 37">
       <r>  -1.6058  1.0000</r>
       <r>  -1.2500  1.0000</r>
       <r>  -1.2500  1.0000</r>
       <r>  -0.8953  1.0000</r>
       <r>   0.8606  1.0000</r>
       <r>   0.8641  1.0000</r>
       <r>   1.2080  1.0000</r>
       <r>   1.2100  1.0000</r>
       <r>   1.2115  1.0000</r>
       <r>   1.2135  1.0000</r>
       <r>   1.5562  1.0000</r>
       <r>   1.5597  1.0000</r>
       <r>   2.9324  1.0000</r>
       <r>   2.9324  1.0000</r>
       <r>   3.2740  1.0000</r>
       <r>   3.2740  1.0000</r>
       <r>   3.9471  1.0000</r>
       <r>   3.9471  1.0000</r>
       <r>   4.2848  1.0000</r>
       <r>   4.2848  1.0000</r>
       <r>   5.2533  1.0000</r>
       <r>   5.2551  1.0000</r>
       <r>   5.2566  1.0000</r>
       <r>   5.2584  1.0000</r>
       <r>   5.3443  1.0000</r>
       <r>   5.3443  1.0000</r>
       <r>   5.9987  1.0000</r>
       <r>   5.9990  1.0000</r>
       <r>   6.0060  1.0000</r>
       <r>   6.0062  1.0000</r>
       <r>   6.6599  1.0000</r>
       <r>   6.6599  1.0000</r>
       <r>   6.7448  1.0000</r>
       <r>   6.7466  1.0000</r>
       <r>   6.7481  1.0000</r>
       <r>   6.7500  1.0000</r>
       <r>   7.2249  1.0000</r>
       <r>   7.2633  1.0000</r>
       <r>   7.5858  1.0000</r>
       <r>   7.5858  1.0000</r>
       <r>   7.9088  1.0000</r>
       <r>   8.0806  1.0000</r>
       <r>   8.0806  1.0000</r>
       <r>   8.5706  1.0000</r>
       <r>   9.6505  1.0000</r>
       <r>   9.6505  1.0000</r>
       <r>   9.6948  0.9999</r>
       <r>   9.6986  0.9995</r>
       <r>   9.7888  0.0000</r>
       <r>   9.8794  0.0000</r>
       <r>  10.6649  0.0000</r>
       <r>  10.6659  0.0000</r>
       <r>  10.6689  0.0000</r>
       <r>  10.6698  0.0000</r>
       <r>  11.4726  0.0000</r>
       <r>  11.4726  0.0000</r>
       <r>  11.6322  0.0000</r>
       <r>  11.6363  0.0000</r>
       <r>  11.7996  0.0000</r>
       <r>  11.7996  0.0000</r>
       <r>  12.0565  0.0000</r>
       <r>  12.0565  0.0000</r>
       <r>  12.1760  0.0000</r>
       <r>  12.1760  0.0000</r>
       <r>  12.4449  0.0000</r>
       <r>  12.4449  0.0000</r>
       <r>  12.7730  0.0000</r>
       <r>  12.7730  0.0000</r>
       <r>  13.2749  0.0000</r>
       <r>  13.2749  0.0000</r>
       <r>  13.5064  0.0000</r>
       <r>  13.5064  0.0000</r>
      </set>
      <set comment="kpoint 38">
       <r>  -1.5549  1.0000</r>
       <r>  -1.1993  1.0000</r>
       <r>  -1.1992  1.0000</r>
       <r>  -0.8447  1.0000</r>
       <r>   0.2127  1.0000</r>
       <r>   0.5630  1.0000</r>
       <r>   0.5631  1.0000</r>
       <r>   0.9123  1.0000</r>
       <r>   1.6072  1.0000</r>
       <r>   1.9531  1.0000</r>
       <r>   1.9531  1.0000</r>
       <r>   2.2977  1.0000</r>
       <r>   2.9813  1.0000</r>
       <r>   2.9813  1.0000</r>
       <r>   3.3226  1.0000</r>
       <r>   3.3226  1.0000</r>
       <r>   3.9953  1.0000</r>
       <r>   3.9953  1.0000</r>
       <r>   4.3327  1.0000</r>
       <r>   4.3327  1.0000</r>
       <r>   4.6643  1.0000</r>
       <r>   4.6643  1.0000</r>
       <r>   4.9698  1.0000</r>
       <r>   4.9698  1.0000</r>
       <r>   5.6289  1.0000</r>
       <r>   5.6289  1.0000</r>
       <r>   5.7185  1.0000</r>
       <r>   5.7185  1.0000</r>
       <r>   6.3822  1.0000</r>
       <r>   6.3822  1.0000</r>
       <r>   6.4728  1.0000</r>
       <r>   6.4728  1.0000</r>
       <r>   6.5510  1.0000</r>
       <r>   6.8585  1.0000</r>
       <r>   6.8585  1.0000</r>
       <r>   7.0134  1.0000</r>
       <r>   7.1212  1.0000</r>
       <r>   7.1212  1.0000</r>
       <r>   7.4251  1.0000</r>
       <r>   7.4252  1.0000</r>
       <r>   7.5529  1.0000</r>
       <r>   8.3026  1.0000</r>
       <r>   8.3026  1.0000</r>
       <r>   9.0481  1.0000</r>
       <r>   9.0805  1.0000</r>
       <r>  10.0524  0.0000</r>
       <r>  10.0524  0.0000</r>
       <r>  10.1558  0.0000</r>
       <r>  10.2878  0.0000</r>
       <r>  10.2878  0.0000</r>
       <r>  10.4047  0.0000</r>
       <r>  10.5797  0.0000</r>
       <r>  10.8044  0.0000</r>
       <r>  10.8045  0.0000</r>
       <r>  11.0199  0.0000</r>
       <r>  11.1637  0.0000</r>
       <r>  11.1637  0.0000</r>
       <r>  11.3733  0.0000</r>
       <r>  11.3733  0.0000</r>
       <r>  11.6386  0.0000</r>
       <r>  11.6386  0.0000</r>
       <r>  12.1074  0.0000</r>
       <r>  12.1074  0.0000</r>
       <r>  12.3385  0.0000</r>
       <r>  12.3940  0.0000</r>
       <r>  12.3940  0.0000</r>
       <r>  12.4778  0.0000</r>
       <r>  12.4778  0.0000</r>
       <r>  13.7632  0.0000</r>
       <r>  13.7664  0.0000</r>
       <r>  13.7951  0.0000</r>
       <r>  13.7992  0.0000</r>
      </set>
      <set comment="kpoint 39">
       <r>  -1.4024  1.0000</r>
       <r>  -1.0472  1.0000</r>
       <r>  -1.0472  1.0000</r>
       <r>  -0.6931  1.0000</r>
       <r>  -0.3400  1.0000</r>
       <r>   0.0121  1.0000</r>
       <r>   0.0121  1.0000</r>
       <r>   0.3630  1.0000</r>
       <r>   2.4445  1.0000</r>
       <r>   2.7875  1.0000</r>
       <r>   2.7875  1.0000</r>
       <r>   3.1272  1.0000</r>
       <r>   3.1276  1.0000</r>
       <r>   3.1290  1.0000</r>
       <r>   3.4681  1.0000</r>
       <r>   3.4681  1.0000</r>
       <r>   4.1396  1.0000</r>
       <r>   4.1397  1.0000</r>
       <r>   4.1427  1.0000</r>
       <r>   4.1428  1.0000</r>
       <r>   4.4720  1.0000</r>
       <r>   4.4720  1.0000</r>
       <r>   4.4759  1.0000</r>
       <r>   4.4760  1.0000</r>
       <r>   5.1356  1.0000</r>
       <r>   5.1356  1.0000</r>
       <r>   5.4386  1.0000</r>
       <r>   5.4386  1.0000</r>
       <r>   5.4566  1.0000</r>
       <r>   5.7807  1.0000</r>
       <r>   5.7807  1.0000</r>
       <r>   6.0827  1.0000</r>
       <r>   6.9423  1.0000</r>
       <r>   6.9423  1.0000</r>
       <r>   7.2469  1.0000</r>
       <r>   7.2469  1.0000</r>
       <r>   7.5780  1.0000</r>
       <r>   7.8869  1.0000</r>
       <r>   7.8869  1.0000</r>
       <r>   8.2162  1.0000</r>
       <r>   8.2162  1.0000</r>
       <r>   8.5045  1.0000</r>
       <r>   8.5045  1.0000</r>
       <r>   8.5579  1.0000</r>
       <r>   9.4167  1.0000</r>
       <r>   9.5295  1.0000</r>
       <r>   9.5295  1.0000</r>
       <r>   9.7813  0.0000</r>
       <r>   9.7813  0.0000</r>
       <r>  10.1306  0.0000</r>
       <r>  10.1306  0.0000</r>
       <r>  10.4959  0.0000</r>
       <r>  10.7057  0.0000</r>
       <r>  10.7057  0.0000</r>
       <r>  11.0835  0.0000</r>
       <r>  11.0835  0.0000</r>
       <r>  11.2023  0.0000</r>
       <r>  11.2783  0.0000</r>
       <r>  11.5589  0.0000</r>
       <r>  11.5590  0.0000</r>
       <r>  11.8829  0.0000</r>
       <r>  12.1683  0.0000</r>
       <r>  12.1684  0.0000</r>
       <r>  12.5029  0.0000</r>
       <r>  12.5029  0.0000</r>
       <r>  12.7525  0.0000</r>
       <r>  12.7525  0.0000</r>
       <r>  13.1313  0.0000</r>
       <r>  13.4030  0.0000</r>
       <r>  13.4030  0.0000</r>
       <r>  13.7726  0.0000</r>
       <r>  13.7726  0.0000</r>
      </set>
      <set comment="kpoint 40">
       <r>  -1.1486  1.0000</r>
       <r>  -0.7960  1.0000</r>
       <r>  -0.7941  1.0000</r>
       <r>  -0.7923  1.0000</r>
       <r>  -0.4426  1.0000</r>
       <r>  -0.4407  1.0000</r>
       <r>  -0.4389  1.0000</r>
       <r>  -0.0884  1.0000</r>
       <r>   3.3688  1.0000</r>
       <r>   3.3708  1.0000</r>
       <r>   3.3726  1.0000</r>
       <r>   3.7068  1.0000</r>
       <r>   3.7085  1.0000</r>
       <r>   3.7098  1.0000</r>
       <r>   3.7098  1.0000</r>
       <r>   3.7112  1.0000</r>
       <r>   3.7128  1.0000</r>
       <r>   4.0454  1.0000</r>
       <r>   4.0460  1.0000</r>
       <r>   4.0466  1.0000</r>
       <r>   4.3790  1.0000</r>
       <r>   4.3796  1.0000</r>
       <r>   4.3802  1.0000</r>
       <r>   4.7100  1.0000</r>
       <r>   4.7117  1.0000</r>
       <r>   4.7130  1.0000</r>
       <r>   4.7130  1.0000</r>
       <r>   4.7144  1.0000</r>
       <r>   4.7161  1.0000</r>
       <r>   5.0380  1.0000</r>
       <r>   5.0399  1.0000</r>
       <r>   5.0418  1.0000</r>
       <r>   7.7987  1.0000</r>
       <r>   7.8007  1.0000</r>
       <r>   7.8028  1.0000</r>
       <r>   8.1297  1.0000</r>
       <r>   8.1304  1.0000</r>
       <r>   8.1311  1.0000</r>
       <r>   8.7571  1.0000</r>
       <r>   8.7575  1.0000</r>
       <r>   8.7592  1.0000</r>
       <r>   8.7592  1.0000</r>
       <r>   8.7608  1.0000</r>
       <r>   8.7612  1.0000</r>
       <r>   9.0967  1.0000</r>
       <r>   9.0972  1.0000</r>
       <r>   9.0988  1.0000</r>
       <r>   9.0988  1.0000</r>
       <r>   9.1004  1.0000</r>
       <r>   9.1009  1.0000</r>
       <r>   9.7087  0.9680</r>
       <r>   9.7096  0.9580</r>
       <r>   9.7105  0.9462</r>
       <r>  10.0590  0.0000</r>
       <r>  10.0611  0.0000</r>
       <r>  10.0632  0.0000</r>
       <r>  12.0861  0.0000</r>
       <r>  12.7211  0.0000</r>
       <r>  12.7216  0.0000</r>
       <r>  12.7221  0.0000</r>
       <r>  13.0252  0.0000</r>
       <r>  13.0256  0.0000</r>
       <r>  13.0272  0.0000</r>
       <r>  13.0273  0.0000</r>
       <r>  13.0288  0.0000</r>
       <r>  13.0290  0.0000</r>
       <r>  13.0483  0.0000</r>
       <r>  13.0494  0.0000</r>
       <r>  13.0505  0.0000</r>
       <r>  13.3624  0.0000</r>
       <r>  13.3635  0.0000</r>
       <r>  13.3646  0.0000</r>
      </set>
     </set>
    </set>
   </array>
  </eigenvalues>
 </calculation>
 <structure name="finalpos" >
  <crystal>
   <varray name="basis" >
    <v>       7.67088210      0.00000000      0.00000000</v>
    <v>       0.00000000      7.67088210      0.00000000</v>
    <v>       0.00000000      0.00000000      7.67088210</v>
   </varray>
   <i name="volume">    451.37336024</i>
   <varray name="rec_basis" >
    <v>       0.13036310      0.00000000      0.00000000</v>
    <v>       0.00000000      0.13036310      0.00000000</v>
    <v>       0.00000000      0.00000000      0.13036310</v>
   </varray>
  </crystal>
  <varray name="positions" >
   <v>       0.25130363      0.25000000      0.00000000</v>
   <v>       0.75000000      0.25000000      0.00000000</v>
   <v>       0.25000000      0.75000000      0.00000000</v>
   <v>       0.75000000      0.75000000      0.00000000</v>
   <v>       0.25000000      0.25000000      0.50000000</v>
   <v>       0.75000000      0.25000000      0.50000000</v>
   <v>       0.25000000      0.75000000      0.50000000</v>
   <v>       0.75000000      0.75000000      0.50000000</v>
   <v>       0.25000000      0.00000000      0.25000000</v>
   <v>       0.75000000      0.00000000      0.25000000</v>
   <v>       0.25000000      0.50000000      0.25000000</v>
   <v>       0.75000000      0.50000000      0.25000000</v>
   <v>       0.25000000      0.00000000      0.75000000</v>
   <v>       0.75000000      0.00000000      0.75000000</v>
   <v>       0.25000000      0.50000000      0.75000000</v>
   <v>       0.75000000      0.50000000      0.75000000</v>
   <v>       0.00000000      0.25000000      0.25000000</v>
   <v>       0.50000000      0.25000000      0.25000000</v>
   <v>       0.00000000      0.75000000      0.25000000</v>
   <v>       0.50000000      0.75000000      0.25000000</v>
   <v>       0.00000000      0.25000000      0.75000000</v>
   <v>       0.50000000      0.25000000      0.75000000</v>
   <v>       0.00000000      0.75000000      0.75000000</v>
   <v>       0.50000000      0.75000000      0.75000000</v>
   <v>       0.00000000      0.00000000      0.00000000</v>
   <v>       0.50000000      0.00000000      0.00000000</v>
   <v>       0.00000000      0.50000000      0.00000000</v>
   <v>       0.50000000      0.50000000      0.00000000</v>
   <v>       0.00000000      0.00000000      0.50000000</v>
   <v>       0.50000000      0.00000000      0.50000000</v>
   <v>       0.00000000      0.50000000      0.50000000</v>
   <v>       0.50000000      0.50000000      0.50000000</v>
  </varray>
 </structure>
</modeling>
