 running on    8 nodes
 distr:  one band on    1 nodes,    8 groups
 vasp.4.6.28 25Jul05 complex 
 POSCAR found :  1 types and   32 ions

 ----------------------------------------------------------------------------- 
|                                                                             |
|  ADVICE TO THIS USER RUNNING 'VASP/VAMP'   (HEAR YOUR MASTER'S VOICE ...):  |
|                                                                             |
|      You have a (more or less) 'large supercell' and for larger cells       |
|      it might be more efficient to use real space projection operators      |
|      So try LREAL= Auto  in the INCAR   file.                               |
|      Mind: If you want to do an extremely accurate calculations keep the    |
|      reciprocal projection scheme          (i.e. LREAL=.FALSE.)             |
|                                                                             |
 ----------------------------------------------------------------------------- 

 LDA part: xc-table for Pade appr. of Perdew
 generate k-points for:   7   7   7
 POSCAR, INCAR and KPOINTS ok, starting setup
 FFT: planning ...           1
 reading WAVECAR
 entering main loop
       N       E                     dE             d eps       ncg     rms          rms(c)
DAV:   1     0.141061089220E+03    0.14106E+03   -0.33831E+04  5760   0.106E+03
DAV:   2    -0.103869192352E+03   -0.24493E+03   -0.22788E+03  6816   0.148E+02
DAV:   3    -0.116977310075E+03   -0.13108E+02   -0.12550E+02  7056   0.279E+01
DAV:   4    -0.117200490956E+03   -0.22318E+00   -0.22158E+00  6744   0.384E+00
DAV:   5    -0.117203050302E+03   -0.25593E-02   -0.25578E-02  6704   0.467E-01    0.568E+00
DAV:   6    -0.116701526710E+03    0.50152E+00   -0.29676E-02  6680   0.540E-01    0.354E+00
DAV:   7    -0.116341226164E+03    0.36030E+00   -0.96162E-02  6264   0.892E-01    0.134E-01
DAV:   8    -0.116341436811E+03   -0.21065E-03   -0.10478E-03  6984   0.132E-01    0.524E-02
DAV:   9    -0.116341468372E+03   -0.31561E-04   -0.67136E-05  6584   0.217E-02    0.487E-03
DAV:  10    -0.116341471400E+03   -0.30281E-05   -0.39995E-06  7000   0.641E-03    0.208E-03
DAV:  11    -0.116341470566E+03    0.83333E-06   -0.25615E-07  6736   0.157E-03    0.822E-04
DAV:  12    -0.116341470230E+03    0.33625E-06   -0.16930E-08  4280   0.453E-04    0.146E-04
DAV:  13    -0.116341470131E+03    0.99288E-07   -0.28024E-09  3760   0.199E-04    0.290E-05
DAV:  14    -0.116341470119E+03    0.12334E-07   -0.44663E-10  3784   0.715E-05    0.101E-05
DAV:  15    -0.116341470115E+03    0.33781E-08   -0.89921E-11  3728   0.360E-05
   1 F= -.11634147E+03 E0= -.11634142E+03  d E =-.940660E-04
