  32  32   0   0
  0.1410430E+02  0.7670680E-09  0.7670680E-09  0.7670680E-09  0.5000000E-15
  1.000000000000000E-004
  CAR 
 unknown system                          
     14.67697821     -3.34441298  301      9.72274767      1.00000000
     -3.344  0.0000E+00  0.0000E+00
     -3.284  0.0000E+00  0.0000E+00
     -3.224  0.0000E+00  0.0000E+00
     -3.164  0.0000E+00  0.0000E+00
     -3.104  0.0000E+00  0.0000E+00
     -3.044  0.0000E+00  0.0000E+00
     -2.984  0.0000E+00  0.0000E+00
     -2.924  0.0000E+00  0.0000E+00
     -2.864  0.0000E+00  0.0000E+00
     -2.804  0.0000E+00  0.0000E+00
     -2.744  0.0000E+00  0.0000E+00
     -2.684  0.0000E+00  0.0000E+00
     -2.624  0.0000E+00  0.0000E+00
     -2.563  0.3125E-08  0.1877E-09
     -2.503  0.9698E-01  0.5826E-02
     -2.443  0.5844E+00  0.4094E-01
     -2.383  0.1199E+01  0.1130E+00
     -2.323  0.9360E+00  0.1692E+00
     -2.263  0.2246E+01  0.3041E+00
     -2.203  0.2757E+01  0.4698E+00
     -2.143  0.4246E-01  0.4723E+00
     -2.083  0.1178E+01  0.5431E+00
     -2.023  0.3107E+01  0.7297E+00
     -1.963  0.3220E+01  0.9232E+00
     -1.903  0.1919E+01  0.1038E+01
     -1.843  0.2403E+01  0.1183E+01
     -1.783  0.4674E+01  0.1464E+01
     -1.722  0.9073E-02  0.1464E+01
     -1.662  0.1480E+01  0.1553E+01
     -1.602  0.6085E+01  0.1919E+01
     -1.542  0.3395E+01  0.2122E+01
     -1.482  0.2424E+01  0.2268E+01
     -1.422  0.4664E+01  0.2548E+01
     -1.362  0.2325E+01  0.2688E+01
     -1.302  0.9529E+00  0.2745E+01
     -1.242  0.3877E+01  0.2978E+01
     -1.182  0.7340E+01  0.3419E+01
     -1.122  0.3166E+01  0.3609E+01
     -1.062  0.1278E+00  0.3617E+01
     -1.002  0.7882E+01  0.4090E+01
     -0.942  0.3638E+01  0.4309E+01
     -0.881  0.1131E+01  0.4377E+01
     -0.821  0.4690E+01  0.4659E+01
     -0.761  0.4682E+01  0.4940E+01
     -0.701  0.4957E+01  0.5238E+01
     -0.641  0.3871E+01  0.5470E+01
     -0.581  0.7535E+01  0.5923E+01
     -0.521  0.5031E+00  0.5953E+01
     -0.461  0.2347E+01  0.6094E+01
     -0.401  0.9578E+01  0.6670E+01
     -0.341  0.5372E+01  0.6992E+01
     -0.281  0.3395E+01  0.7196E+01
     -0.221  0.7224E+01  0.7630E+01
     -0.161  0.4697E+01  0.7913E+01
     -0.101  0.2872E-01  0.7914E+01
     -0.040  0.2580E+01  0.8069E+01
      0.020  0.1024E+02  0.8685E+01
      0.080  0.5941E+01  0.9041E+01
      0.140  0.2373E+01  0.9184E+01
      0.200  0.7274E+01  0.9621E+01
      0.260  0.9029E+01  0.1016E+02
      0.320  0.3835E+01  0.1039E+02
      0.380  0.5438E+01  0.1072E+02
      0.440  0.2379E+01  0.1086E+02
      0.500  0.6985E+01  0.1128E+02
      0.560  0.2243E+01  0.1142E+02
      0.620  0.1249E+02  0.1217E+02
      0.680  0.1572E+01  0.1226E+02
      0.740  0.5898E+00  0.1230E+02
      0.801  0.9686E+01  0.1288E+02
      0.861  0.9812E+01  0.1347E+02
      0.921  0.5519E+01  0.1380E+02
      0.981  0.9871E+01  0.1439E+02
      1.041  0.4707E+01  0.1468E+02
      1.101  0.2206E+00  0.1469E+02
      1.161  0.5465E+01  0.1502E+02
      1.221  0.1311E+02  0.1581E+02
      1.281  0.6428E+01  0.1619E+02
      1.341  0.2369E+01  0.1633E+02
      1.401  0.9830E+01  0.1693E+02
      1.461  0.4112E+01  0.1717E+02
      1.521  0.2244E+01  0.1731E+02
      1.581  0.9981E+01  0.1791E+02
      1.642  0.4758E+01  0.1819E+02
      1.702  0.7981E+01  0.1867E+02
      1.762  0.7222E+01  0.1911E+02
      1.822  0.1251E+02  0.1986E+02
      1.882  0.1435E+00  0.1987E+02
      1.942  0.3025E+01  0.2005E+02
      2.002  0.1844E+02  0.2116E+02
      2.062  0.1083E+02  0.2181E+02
      2.122  0.3264E+00  0.2183E+02
      2.182  0.4723E+01  0.2211E+02
      2.242  0.9254E+01  0.2266E+02
      2.302  0.1660E+01  0.2276E+02
      2.362  0.5254E+01  0.2308E+02
      2.422  0.1056E+02  0.2371E+02
      2.483  0.7116E+01  0.2414E+02
      2.543  0.1018E+02  0.2475E+02
      2.603  0.1324E+02  0.2555E+02
      2.663  0.3280E+00  0.2557E+02
      2.723  0.7130E+01  0.2600E+02
      2.783  0.1074E+02  0.2664E+02
      2.843  0.1085E+02  0.2729E+02
      2.903  0.4650E+01  0.2757E+02
      2.963  0.7049E+01  0.2800E+02
      3.023  0.1393E+02  0.2883E+02
      3.083  0.1036E-08  0.2883E+02
      3.143  0.9050E+01  0.2938E+02
      3.203  0.9585E+01  0.2995E+02
      3.263  0.5078E+01  0.3026E+02
      3.324  0.1170E+02  0.3096E+02
      3.384  0.1296E+02  0.3174E+02
      3.444  0.5429E+00  0.3177E+02
      3.504  0.5135E+01  0.3208E+02
      3.564  0.1246E+02  0.3283E+02
      3.624  0.1087E+02  0.3348E+02
      3.684  0.8502E-01  0.3349E+02
      3.744  0.1445E+02  0.3436E+02
      3.804  0.1349E+02  0.3517E+02
      3.864  0.8310E+00  0.3522E+02
      3.924  0.1427E+02  0.3607E+02
      3.984  0.5151E+01  0.3638E+02
      4.044  0.1252E+02  0.3714E+02
      4.104  0.8097E+01  0.3762E+02
      4.165  0.1616E+02  0.3859E+02
      4.225  0.2328E+01  0.3873E+02
      4.285  0.5528E+01  0.3906E+02
      4.345  0.1521E+02  0.3998E+02
      4.405  0.7249E+01  0.4041E+02
      4.465  0.5529E+01  0.4075E+02
      4.525  0.1350E+02  0.4156E+02
      4.585  0.5147E+00  0.4159E+02
      4.645  0.5202E+01  0.4190E+02
      4.705  0.1605E+02  0.4286E+02
      4.765  0.1387E+02  0.4370E+02
      4.825  0.6921E+01  0.4411E+02
      4.885  0.1583E+02  0.4506E+02
      4.945  0.9752E+01  0.4565E+02
      5.005  0.6983E+01  0.4607E+02
      5.066  0.1092E+02  0.4673E+02
      5.126  0.8085E+01  0.4721E+02
      5.186  0.9340E+01  0.4777E+02
      5.246  0.8854E+01  0.4830E+02
      5.306  0.9750E+01  0.4889E+02
      5.366  0.3519E+01  0.4910E+02
      5.426  0.9892E+01  0.4970E+02
      5.486  0.1055E+02  0.5033E+02
      5.546  0.6045E+01  0.5069E+02
      5.606  0.6518E+01  0.5108E+02
      5.666  0.1591E+02  0.5204E+02
      5.726  0.7728E+01  0.5251E+02
      5.786  0.1093E+02  0.5316E+02
      5.846  0.1898E+02  0.5430E+02
      5.907  0.8157E+01  0.5479E+02
      5.967  0.7236E+01  0.5523E+02
      6.027  0.1740E+02  0.5627E+02
      6.087  0.2826E+01  0.5644E+02
      6.147  0.6275E+01  0.5682E+02
      6.207  0.1422E+02  0.5767E+02
      6.267  0.2451E+00  0.5769E+02
      6.327  0.1471E+02  0.5857E+02
      6.387  0.1438E+02  0.5943E+02
      6.447  0.8350E+01  0.5994E+02
      6.507  0.2335E+02  0.6134E+02
      6.567  0.1364E+02  0.6216E+02
      6.627  0.5873E+01  0.6251E+02
      6.687  0.1309E+02  0.6330E+02
      6.748  0.3186E+01  0.6349E+02
      6.808  0.5660E+01  0.6383E+02
      6.868  0.9321E+01  0.6439E+02
      6.928  0.1805E+02  0.6547E+02
      6.988  0.1139E+02  0.6616E+02
      7.048  0.8890E+01  0.6669E+02
      7.108  0.1397E+02  0.6753E+02
      7.168  0.1555E+02  0.6847E+02
      7.228  0.8371E+01  0.6897E+02
      7.288  0.7236E+01  0.6940E+02
      7.348  0.6471E+01  0.6979E+02
      7.408  0.1389E+02  0.7063E+02
      7.468  0.1461E+02  0.7150E+02
      7.528  0.1462E+01  0.7159E+02
      7.589  0.1263E+02  0.7235E+02
      7.649  0.9181E+01  0.7290E+02
      7.709  0.1452E+02  0.7377E+02
      7.769  0.7794E+01  0.7424E+02
      7.829  0.8150E+01  0.7473E+02
      7.889  0.1070E+02  0.7538E+02
      7.949  0.1856E+02  0.7649E+02
      8.009  0.7851E+01  0.7696E+02
      8.069  0.1801E+01  0.7707E+02
      8.129  0.1100E+02  0.7773E+02
      8.189  0.1387E+02  0.7856E+02
      8.249  0.1460E+02  0.7944E+02
      8.309  0.2014E+02  0.8065E+02
      8.369  0.6386E+01  0.8103E+02
      8.430  0.2673E+01  0.8119E+02
      8.490  0.1418E+02  0.8205E+02
      8.550  0.1052E+02  0.8268E+02
      8.610  0.8019E+01  0.8316E+02
      8.670  0.1647E+02  0.8415E+02
      8.730  0.1042E+02  0.8478E+02
      8.790  0.1608E+02  0.8574E+02
      8.850  0.1165E+02  0.8644E+02
      8.910  0.9242E+01  0.8700E+02
      8.970  0.1471E+02  0.8788E+02
      9.030  0.4639E+01  0.8816E+02
      9.090  0.1049E+02  0.8879E+02
      9.150  0.1601E+02  0.8975E+02
      9.210  0.1184E+02  0.9046E+02
      9.271  0.1367E+02  0.9128E+02
      9.331  0.1112E+02  0.9195E+02
      9.391  0.3984E+01  0.9219E+02
      9.451  0.1541E+02  0.9312E+02
      9.511  0.1139E+02  0.9380E+02
      9.571  0.1605E+02  0.9476E+02
      9.631  0.2028E+01  0.9489E+02
      9.691  0.1177E+02  0.9559E+02
      9.751  0.1041E+02  0.9622E+02
      9.811  0.1694E+02  0.9724E+02
      9.871  0.7476E+01  0.9769E+02
      9.931  0.8521E+01  0.9820E+02
      9.991  0.8936E+01  0.9873E+02
     10.051  0.6678E+01  0.9914E+02
     10.112  0.5430E+01  0.9946E+02
     10.172  0.1624E+02  0.1004E+03
     10.232  0.1242E+02  0.1012E+03
     10.292  0.1969E+02  0.1024E+03
     10.352  0.1001E+02  0.1030E+03
     10.412  0.1254E+02  0.1037E+03
     10.472  0.1897E+02  0.1049E+03
     10.532  0.1395E+02  0.1057E+03
     10.592  0.1931E+02  0.1069E+03
     10.652  0.1237E+02  0.1076E+03
     10.712  0.2033E+02  0.1088E+03
     10.772  0.7881E+01  0.1093E+03
     10.832  0.1530E+02  0.1102E+03
     10.892  0.2825E+01  0.1104E+03
     10.953  0.2355E+01  0.1105E+03
     11.013  0.1074E+02  0.1112E+03
     11.073  0.1266E+02  0.1119E+03
     11.133  0.1478E+02  0.1128E+03
     11.193  0.6229E+01  0.1132E+03
     11.253  0.2195E+02  0.1145E+03
     11.313  0.8188E+01  0.1150E+03
     11.373  0.1444E+02  0.1159E+03
     11.433  0.6488E+01  0.1163E+03
     11.493  0.1055E+02  0.1169E+03
     11.553  0.1982E+02  0.1181E+03
     11.613  0.1500E+02  0.1190E+03
     11.673  0.1620E+02  0.1200E+03
     11.733  0.9844E+01  0.1206E+03
     11.794  0.1054E+02  0.1212E+03
     11.854  0.1270E+02  0.1219E+03
     11.914  0.1127E+02  0.1226E+03
     11.974  0.9399E+01  0.1232E+03
     12.034  0.8160E+01  0.1237E+03
     12.094  0.2011E+02  0.1249E+03
     12.154  0.1217E+02  0.1256E+03
     12.214  0.1429E+02  0.1265E+03
     12.274  0.6605E+01  0.1269E+03
     12.334  0.7490E+01  0.1273E+03
     12.394  0.9539E+01  0.1279E+03
     12.454  0.1759E+02  0.1290E+03
     12.514  0.1658E+02  0.1300E+03
     12.574  0.2853E+02  0.1317E+03
     12.635  0.1412E+01  0.1317E+03
     12.695  0.1136E+02  0.1324E+03
     12.755  0.2602E+02  0.1340E+03
     12.815  0.1026E+02  0.1346E+03
     12.875  0.1390E+01  0.1347E+03
     12.935  0.4345E+01  0.1350E+03
     12.995  0.4139E+01  0.1352E+03
     13.055  0.1900E+02  0.1363E+03
     13.115  0.1612E+02  0.1373E+03
     13.175  0.9138E+01  0.1379E+03
     13.235  0.1881E+02  0.1390E+03
     13.295  0.1170E+02  0.1397E+03
     13.355  0.1236E+02  0.1404E+03
     13.415  0.1950E+02  0.1416E+03
     13.476  0.8059E+01  0.1421E+03
     13.536  0.8424E+01  0.1426E+03
     13.596  0.0000E+00  0.1426E+03
     13.656  0.2293E-07  0.1426E+03
     13.716  0.6938E+01  0.1430E+03
     13.776  0.7108E+01  0.1434E+03
     13.836  0.6922E+01  0.1439E+03
     13.896  0.2327E+01  0.1440E+03
     13.956  0.0000E+00  0.1440E+03
     14.016  0.0000E+00  0.1440E+03
     14.076  0.0000E+00  0.1440E+03
     14.136  0.0000E+00  0.1440E+03
     14.196  0.0000E+00  0.1440E+03
     14.256  0.0000E+00  0.1440E+03
     14.317  0.0000E+00  0.1440E+03
     14.377  0.0000E+00  0.1440E+03
     14.437  0.0000E+00  0.1440E+03
     14.497  0.0000E+00  0.1440E+03
     14.557  0.0000E+00  0.1440E+03
     14.617  0.0000E+00  0.1440E+03
     14.677  0.0000E+00  0.1440E+03
