   32   32    1    1
  0.1410430E+02  0.7670680E-09  0.7670680E-09  0.7670680E-09  0.5000000E-15
  1.000000000000000E-004
  CAR 
 unknown system                          
   96   40   72
 
  0.0000000E+00  0.0000000E+00  0.0000000E+00  0.2915452E-02
   1       -2.5253
   2       -0.0419
   3       -0.0378
   4       -0.0378
   5       -0.0378
   6       -0.0378
   7       -0.0337
   8        2.3907
   9        2.3952
  10        2.3952
  11        2.3971
  12        2.3973
  13        2.3973
  14        2.3973
  15        2.3973
  16        2.3976
  17        2.3995
  18        2.3995
  19        2.4040
  20        4.5022
  21        4.5022
  22        4.5022
  23        4.5022
  24        5.1332
  25        5.1332
  26        5.1332
  27        5.1333
  28        6.4358
  29        6.4358
  30        6.4358
  31        8.0631
  32        8.0631
  33        8.0631
  34        8.6889
  35        8.6889
  36        8.6937
  37        8.6937
  38        8.6939
  39        8.6939
  40        8.6939
  41        8.6940
  42        8.6941
  43        8.6941
  44        8.6989
  45        8.6989
  46        9.6059
  47        9.6106
  48        9.6106
  49        9.6106
  50        9.6106
  51        9.6153
  52       10.9638
  53       10.9638
  54       10.9651
  55       10.9680
  56       10.9682
  57       10.9682
  58       10.9682
  59       10.9683
  60       10.9684
  61       10.9713
  62       10.9726
  63       10.9726
  64       11.7788
  65       11.7802
  66       11.7803
  67       11.7803
  68       11.7803
  69       11.7817
  70       12.9770
  71       12.9796
  72       12.9810
 
  0.1428571E+00  0.0000000E+00  0.0000000E+00  0.5830904E-02
   1       -2.4740
   2       -0.6926
   3        0.0124
   4        0.0124
   5        0.0124
   6        0.0124
   7        0.7130
   8        1.7565
   9        1.7565
  10        1.7565
  11        1.7565
  12        2.4464
  13        2.4464
  14        2.4464
  15        2.4464
  16        3.1316
  17        3.1316
  18        3.1316
  19        3.1316
  20        4.1140
  21        4.1140
  22        4.1140
  23        4.1140
  24        5.6148
  25        5.6148
  26        5.6148
  27        5.6148
  28        5.7164
  29        6.4817
  30        6.4817
  31        7.9717
  32        7.9717
  33        7.9717
  34        7.9717
  35        8.0937
  36        8.0937
  37        8.1096
  38        8.1096
  39        8.7402
  40        8.7402
  41        8.7402
  42        8.7402
  43        8.8679
  44        9.3873
  45        9.3873
  46        9.4554
  47        9.4554
  48       10.1185
  49       10.1185
  50       10.1185
  51       10.1185
  52       10.3548
  53       10.3548
  54       10.3552
  55       10.3554
  56       10.3640
  57       10.3641
  58       10.3646
  59       10.3646
  60       11.6659
  61       11.6659
  62       11.6659
  63       11.6659
  64       12.0205
  65       12.0205
  66       12.1288
  67       12.1288
  68       12.1288
  69       12.1288
  70       12.3624
  71       12.3624
  72       12.3624
 
  0.2857143E+00  0.0000000E+00  0.0000000E+00  0.5830904E-02
   1       -2.3202
   2       -1.2496
   3        0.1629
   4        0.1630
   5        0.1630
   6        0.1630
   7        1.2113
   8        1.2113
   9        1.2113
  10        1.2113
  11        1.5574
  12        2.5934
  13        2.5934
  14        2.5934
  15        2.5934
  16        3.6082
  17        3.6083
  18        3.6083
  19        3.6083
  20        3.9563
  21        3.9563
  22        3.9563
  23        3.9564
  24        4.6032
  25        6.3998
  26        6.3998
  27        6.3998
  28        6.3998
  29        6.6196
  30        6.6196
  31        6.9074
  32        6.9074
  33        6.9074
  34        6.9074
  35        7.5863
  36        7.5863
  37        8.2477
  38        8.2477
  39        8.8792
  40        8.8792
  41        8.8792
  42        8.8792
  43        9.1231
  44        9.1232
  45        9.3169
  46        9.3169
  47        9.3169
  48        9.3169
  49        9.8532
  50        9.8532
  51        9.8532
  52        9.8532
  53       10.1739
  54       10.1739
  55       10.2371
  56       10.6030
  57       10.6031
  58       10.6031
  59       10.6031
  60       11.8256
  61       11.8256
  62       11.8256
  63       11.8256
  64       12.4572
  65       12.4572
  66       12.4572
  67       12.4572
  68       12.6052
  69       12.6052
  70       13.0808
  71       13.0831
  72       13.1101
 
  0.4285714E+00  0.0000000E+00  0.0000000E+00  0.5830904E-02
   1       -2.0644
   2       -1.7072
   3        0.4133
   4        0.4134
   5        0.4134
   6        0.4134
   7        0.7632
   8        0.7632
   9        0.7632
  10        0.7632
  11        2.4922
  12        2.8375
  13        2.8375
  14        2.8375
  15        2.8375
  16        3.1772
  17        3.1772
  18        3.1772
  19        3.1772
  20        3.5118
  21        4.8671
  22        4.8671
  23        4.8671
  24        4.8671
  25        5.8562
  26        5.8562
  27        5.8562
  28        5.8562
  29        6.8495
  30        6.8495
  31        7.1717
  32        7.1717
  33        7.2936
  34        7.2936
  35        7.2936
  36        7.2936
  37        8.2731
  38        8.2731
  39        8.2731
  40        8.2732
  41        8.4725
  42        8.4725
  43        8.7730
  44        8.7730
  45        9.1109
  46        9.1109
  47        9.1109
  48        9.1109
  49        9.4355
  50        9.4356
  51        9.4356
  52        9.4356
  53       10.9752
  54       10.9752
  55       10.9752
  56       10.9752
  57       11.0533
  58       11.0533
  59       11.3675
  60       11.3676
  61       11.3676
  62       11.3676
  63       11.7549
  64       12.0238
  65       12.0238
  66       13.3417
  67       13.3417
  68       13.3417
  69       13.3417
  70       13.3651
  71       13.3661
  72       13.3715
 
  0.0000000E+00  0.1428571E+00  0.0000000E+00  0.1166181E-01
   1       -2.4740
   2       -0.6926
   3        0.0093
   4        0.0124
   5        0.0124
   6        0.0156
   7        0.7130
   8        1.7533
   9        1.7565
  10        1.7565
  11        1.7597
  12        2.4442
  13        2.4451
  14        2.4477
  15        2.4486
  16        3.1283
  17        3.1316
  18        3.1316
  19        3.1348
  20        4.1120
  21        4.1128
  22        4.1152
  23        4.1160
  24        5.6127
  25        5.6135
  26        5.6160
  27        5.6168
  28        5.7164
  29        6.4817
  30        6.4817
  31        7.9681
  32        7.9717
  33        7.9717
  34        7.9752
  35        8.0936
  36        8.0937
  37        8.1096
  38        8.1097
  39        8.7372
  40        8.7402
  41        8.7403
  42        8.7433
  43        8.8679
  44        9.3873
  45        9.3873
  46        9.4554
  47        9.4554
  48       10.1153
  49       10.1185
  50       10.1185
  51       10.1217
  52       10.3524
  53       10.3536
  54       10.3565
  55       10.3578
  56       10.3612
  57       10.3640
  58       10.3645
  59       10.3673
  60       11.6628
  61       11.6659
  62       11.6659
  63       11.6691
  64       12.0205
  65       12.0205
  66       12.1274
  67       12.1288
  68       12.1288
  69       12.1301
  70       12.3609
  71       12.3624
  72       12.3634
 
  0.1428571E+00  0.1428571E+00  0.0000000E+00  0.2332362E-01
   1       -2.4227
   2       -0.6434
   3       -0.6408
   4        0.0626
   5        0.0626
   6        0.7616
   7        0.7642
   8        1.1119
   9        1.8041
  10        1.8051
  11        1.8068
  12        1.8078
  13        2.4949
  14        2.4958
  15        3.1783
  16        3.1793
  17        3.1810
  18        3.1820
  19        3.5114
  20        3.5114
  21        3.8602
  22        4.5958
  23        4.5958
  24        5.2318
  25        5.2318
  26        5.7630
  27        5.7637
  28        6.3051
  29        6.3052
  30        6.5277
  31        7.3868
  32        7.3894
  33        7.8422
  34        7.8422
  35        8.1383
  36        8.1414
  37        8.1553
  38        8.2625
  39        8.2625
  40        8.5901
  41        8.5925
  42        8.9124
  43        8.9133
  44        9.4322
  45        9.4353
  46        9.7446
  47        9.7456
  48        9.7472
  49        9.7483
  50        9.7609
  51        9.8717
  52        9.8737
  53       10.1251
  54       10.1281
  55       10.6540
  56       10.6540
  57       11.0553
  58       11.0559
  59       11.0568
  60       11.0579
  61       11.0602
  62       11.0620
  63       11.7489
  64       12.1886
  65       12.1893
  66       12.3644
  67       12.3810
  68       12.3812
  69       12.5319
  70       12.5340
  71       13.0585
  72       13.0608
 
  0.2857143E+00  0.1428571E+00  0.0000000E+00  0.2332362E-01
   1       -2.2690
   2       -1.1988
   3       -0.4907
   4        0.2131
   5        0.2131
   6        0.5635
   7        0.9124
   8        1.2610
   9        1.2610
  10        1.6069
  11        1.9532
  12        1.9540
  13        1.9546
  14        2.9822
  15        2.9822
  16        3.3248
  17        3.3254
  18        3.3263
  19        4.0040
  20        4.0040
  21        4.3053
  22        4.3053
  23        4.6511
  24        4.6777
  25        5.8069
  26        5.8070
  27        5.9041
  28        6.3072
  29        6.6656
  30        6.8827
  31        6.9332
  32        6.9332
  33        7.1082
  34        7.1082
  35        7.5775
  36        7.6325
  37        8.2629
  38        8.2629
  39        8.2786
  40        8.2903
  41        8.7042
  42        8.7042
  43        8.9586
  44        9.0464
  45        9.2309
  46        9.2309
  47        9.2507
  48        9.5731
  49        9.8711
  50        9.8842
  51       10.0223
  52       10.0224
  53       10.1380
  54       10.2205
  55       10.2796
  56       10.5490
  57       10.9843
  58       11.2199
  59       11.2568
  60       11.2569
  61       11.8489
  62       11.8489
  63       11.8511
  64       12.4978
  65       12.5076
  66       12.5310
  67       12.5310
  68       12.6946
  69       12.8141
  70       13.1277
  71       13.1571
  72       13.1937
 
  0.4285714E+00  0.1428571E+00  0.0000000E+00  0.2332362E-01
   1       -2.0133
   2       -1.6563
   3       -0.2389
   4        0.1129
   5        0.4634
   6        0.4634
   7        0.8130
   8        0.8130
   9        1.1613
  10        1.5087
  11        2.2002
  12        2.2003
  13        2.5406
  14        2.5436
  15        2.5443
  16        3.5600
  17        3.5661
  18        3.5664
  19        3.8983
  20        3.8983
  21        4.2436
  22        4.9131
  23        4.9131
  24        5.2423
  25        5.5786
  26        5.8980
  27        5.8980
  28        6.1382
  29        6.4650
  30        6.5528
  31        6.6819
  32        6.6820
  33        6.8956
  34        7.2178
  35        7.6590
  36        7.6590
  37        8.0040
  38        8.0040
  39        8.4842
  40        8.4842
  41        8.5065
  42        8.5098
  43        8.7769
  44        8.8095
  45        8.8095
  46        8.8338
  47        8.9818
  48        8.9818
  49        9.2631
  50        9.5496
  51        9.8053
  52       10.1306
  53       10.4213
  54       10.5615
  55       10.7778
  56       11.1000
  57       11.4797
  58       11.5597
  59       11.6721
  60       11.6721
  61       11.7930
  62       12.0231
  63       12.0706
  64       12.0737
  65       12.0738
  66       12.7302
  67       12.7302
  68       12.7347
  69       13.3998
  70       13.4293
  71       13.6962
  72       13.6991
 
  0.0000000E+00  0.2857143E+00  0.0000000E+00  0.1166181E-01
   1       -2.3202
   2       -1.2496
   3        0.1598
   4        0.1630
   5        0.1630
   6        0.1661
   7        1.2081
   8        1.2113
   9        1.2113
  10        1.2145
  11        1.5574
  12        2.5912
  13        2.5921
  14        2.5947
  15        2.5956
  16        3.6061
  17        3.6069
  18        3.6096
  19        3.6104
  20        3.9530
  21        3.9563
  22        3.9563
  23        3.9596
  24        4.6032
  25        6.3976
  26        6.3985
  27        6.4012
  28        6.4020
  29        6.6196
  30        6.6196
  31        6.9040
  32        6.9074
  33        6.9074
  34        6.9108
  35        7.5863
  36        7.5863
  37        8.2476
  38        8.2477
  39        8.8762
  40        8.8792
  41        8.8792
  42        8.8822
  43        9.1231
  44        9.1232
  45        9.3144
  46        9.3155
  47        9.3183
  48        9.3194
  49        9.8501
  50        9.8532
  51        9.8532
  52        9.8563
  53       10.1739
  54       10.1739
  55       10.2372
  56       10.6001
  57       10.6031
  58       10.6031
  59       10.6060
  60       11.8229
  61       11.8256
  62       11.8256
  63       11.8284
  64       12.4540
  65       12.4572
  66       12.4572
  67       12.4604
  68       12.6052
  69       12.6052
  70       13.0813
  71       13.0825
  72       13.1111
 
  0.1428571E+00  0.2857143E+00  0.0000000E+00  0.2332362E-01
   1       -2.2690
   2       -1.1988
   3       -0.4907
   4        0.2131
   5        0.2131
   6        0.5635
   7        0.9124
   8        1.2610
   9        1.2610
  10        1.6069
  11        1.9525
  12        1.9540
  13        1.9553
  14        2.9822
  15        2.9822
  16        3.3241
  17        3.3254
  18        3.3269
  19        4.0040
  20        4.0040
  21        4.3053
  22        4.3053
  23        4.6510
  24        4.6777
  25        5.8069
  26        5.8070
  27        5.9041
  28        6.3072
  29        6.6656
  30        6.8827
  31        6.9331
  32        6.9332
  33        7.1082
  34        7.1082
  35        7.5775
  36        7.6325
  37        8.2627
  38        8.2628
  39        8.2787
  40        8.2904
  41        8.7042
  42        8.7042
  43        8.9585
  44        9.0464
  45        9.2308
  46        9.2309
  47        9.2508
  48        9.5731
  49        9.8711
  50        9.8843
  51       10.0224
  52       10.0224
  53       10.1380
  54       10.2205
  55       10.2796
  56       10.5490
  57       10.9842
  58       11.2199
  59       11.2568
  60       11.2569
  61       11.8481
  62       11.8489
  63       11.8519
  64       12.4977
  65       12.5075
  66       12.5310
  67       12.5312
  68       12.6946
  69       12.8141
  70       13.1277
  71       13.1571
  72       13.1944
 
  0.2857143E+00  0.2857143E+00  0.0000000E+00  0.2332362E-01
   1       -2.1156
   2       -1.0481
   3       -1.0454
   4        0.0125
   5        0.3634
   6        0.3634
   7        1.4080
   8        1.4090
   9        1.4107
  10        1.4117
  11        1.7540
  12        1.7567
  13        2.4455
  14        2.4455
  15        2.7882
  16        2.7891
  17        4.1445
  18        4.1454
  19        4.1472
  20        4.1482
  21        4.7941
  22        4.7949
  23        4.8768
  24        4.8768
  25        5.4852
  26        5.5253
  27        5.5253
  28        5.7902
  29        5.7929
  30        6.8035
  31        6.8379
  32        6.8379
  33        7.4504
  34        7.4505
  35        7.7694
  36        7.7724
  37        7.9130
  38        7.9130
  39        8.1846
  40        8.1858
  41        8.1874
  42        8.1885
  43        8.2585
  44        8.2610
  45        8.4128
  46        8.7415
  47        9.7734
  48        9.7748
  49       10.3586
  50       10.3617
  51       10.4038
  52       10.4049
  53       10.7003
  54       10.8170
  55       10.8179
  56       10.8186
  57       10.8195
  58       11.0424
  59       11.0454
  60       11.3375
  61       11.3393
  62       11.5084
  63       12.2322
  64       12.2322
  65       13.0134
  66       13.0141
  67       13.2485
  68       13.2490
  69       13.2683
  70       13.2702
  71       13.6962
  72       13.6982
 
  0.4285714E+00  0.2857143E+00  0.0000000E+00  0.2332362E-01
   1       -1.8602
   2       -1.5036
   3       -0.7937
   4       -0.4403
   5        0.6134
   6        0.6134
   7        0.9626
   8        0.9626
   9        1.6575
  10        1.6575
  11        2.0019
  12        2.0032
  13        2.0036
  14        2.3470
  15        2.6884
  16        3.7058
  17        3.7120
  18        4.3795
  19        4.3796
  20        4.6869
  21        4.6869
  22        4.7177
  23        5.0331
  24        5.0486
  25        5.0486
  26        5.3660
  27        6.0095
  28        6.0095
  29        6.1878
  30        6.1878
  31        6.3708
  32        7.0336
  33        7.1445
  34        7.1445
  35        7.3152
  36        7.3561
  37        7.4649
  38        7.4649
  39        7.7682
  40        7.7683
  41        8.0018
  42        8.3253
  43        8.5871
  44        8.6682
  45        8.8070
  46        8.8070
  47        9.7816
  48        9.7816
  49        9.8366
  50        9.9552
  51       10.2750
  52       10.5506
  53       10.5930
  54       10.6019
  55       10.8445
  56       10.9190
  57       11.2401
  58       11.7013
  59       11.7013
  60       11.9018
  61       12.0383
  62       12.2113
  63       12.2210
  64       12.6653
  65       12.6653
  66       12.7015
  67       12.8855
  68       12.8855
  69       13.1956
  70       13.3507
  71       13.3509
  72       13.4993
 
  0.0000000E+00  0.4285714E+00  0.0000000E+00  0.1166181E-01
   1       -2.0644
   2       -1.7073
   3        0.4102
   4        0.4134
   5        0.4134
   6        0.4166
   7        0.7600
   8        0.7632
   9        0.7632
  10        0.7664
  11        2.4922
  12        2.8353
  13        2.8362
  14        2.8389
  15        2.8397
  16        3.1750
  17        3.1759
  18        3.1785
  19        3.1794
  20        3.5118
  21        4.8638
  22        4.8671
  23        4.8671
  24        4.8704
  25        5.8529
  26        5.8562
  27        5.8562
  28        5.8596
  29        6.8495
  30        6.8496
  31        7.1717
  32        7.1717
  33        7.2913
  34        7.2922
  35        7.2950
  36        7.2959
  37        8.2707
  38        8.2718
  39        8.2745
  40        8.2755
  41        8.4725
  42        8.4725
  43        8.7730
  44        8.7730
  45        9.1079
  46        9.1109
  47        9.1110
  48        9.1140
  49        9.4325
  50        9.4355
  51        9.4356
  52        9.4386
  53       10.9724
  54       10.9752
  55       10.9752
  56       10.9780
  57       11.0533
  58       11.0533
  59       11.3648
  60       11.3675
  61       11.3675
  62       11.3703
  63       11.7549
  64       12.0238
  65       12.0238
  66       13.3385
  67       13.3416
  68       13.3417
  69       13.3450
  70       13.3661
  71       13.3662
  72       13.3705
 
  0.1428571E+00  0.4285714E+00  0.0000000E+00  0.2332362E-01
   1       -2.0133
   2       -1.6563
   3       -0.2388
   4        0.1129
   5        0.4634
   6        0.4634
   7        0.8130
   8        0.8130
   9        1.1613
  10        1.5087
  11        2.2003
  12        2.2003
  13        2.5411
  14        2.5436
  15        2.5438
  16        3.5602
  17        3.5661
  18        3.5662
  19        3.8983
  20        3.8983
  21        4.2436
  22        4.9131
  23        4.9131
  24        5.2423
  25        5.5786
  26        5.8980
  27        5.8980
  28        6.1382
  29        6.4650
  30        6.5528
  31        6.6819
  32        6.6820
  33        6.8956
  34        7.2178
  35        7.6590
  36        7.6590
  37        8.0040
  38        8.0040
  39        8.4842
  40        8.4842
  41        8.5066
  42        8.5099
  43        8.7768
  44        8.8094
  45        8.8096
  46        8.8339
  47        8.9818
  48        8.9818
  49        9.2631
  50        9.5496
  51        9.8053
  52       10.1306
  53       10.4213
  54       10.5615
  55       10.7778
  56       11.1000
  57       11.4797
  58       11.5597
  59       11.6721
  60       11.6721
  61       11.7930
  62       12.0231
  63       12.0705
  64       12.0737
  65       12.0739
  66       12.7297
  67       12.7302
  68       12.7352
  69       13.3999
  70       13.4292
  71       13.6960
  72       13.6974
 
  0.2857143E+00  0.4285714E+00  0.0000000E+00  0.2332362E-01
   1       -1.8602
   2       -1.5036
   3       -0.7937
   4       -0.4403
   5        0.6134
   6        0.6134
   7        0.9625
   8        0.9626
   9        1.6575
  10        1.6575
  11        2.0012
  12        2.0031
  13        2.0042
  14        2.3470
  15        2.6884
  16        3.7058
  17        3.7120
  18        4.3796
  19        4.3796
  20        4.6869
  21        4.6869
  22        4.7177
  23        5.0330
  24        5.0486
  25        5.0487
  26        5.3660
  27        6.0094
  28        6.0095
  29        6.1878
  30        6.1878
  31        6.3708
  32        7.0336
  33        7.1445
  34        7.1445
  35        7.3153
  36        7.3560
  37        7.4649
  38        7.4649
  39        7.7682
  40        7.7683
  41        8.0018
  42        8.3253
  43        8.5871
  44        8.6682
  45        8.8070
  46        8.8070
  47        9.7816
  48        9.7816
  49        9.8366
  50        9.9552
  51       10.2750
  52       10.5506
  53       10.5930
  54       10.6020
  55       10.8444
  56       10.9190
  57       11.2401
  58       11.7013
  59       11.7013
  60       11.9018
  61       12.0383
  62       12.2114
  63       12.2209
  64       12.6653
  65       12.6653
  66       12.7015
  67       12.8855
  68       12.8855
  69       13.1956
  70       13.3507
  71       13.3507
  72       13.4730
 
  0.4285714E+00  0.4285714E+00  0.0000000E+00  0.2332362E-01
   1       -1.6054
   2       -1.2509
   3       -1.2483
   4       -0.8949
   5        0.8629
   6        0.8629
   7        1.2094
   8        1.2104
   9        1.2121
  10        1.2131
  11        1.5585
  12        1.5585
  13        2.9317
  14        2.9344
  15        3.2742
  16        3.2750
  17        3.9474
  18        3.9482
  19        4.2841
  20        4.2868
  21        5.2547
  22        5.2556
  23        5.2575
  24        5.2583
  25        5.3450
  26        5.3450
  27        5.9997
  28        5.9997
  29        6.0068
  30        6.0068
  31        6.6608
  32        6.6608
  33        6.7462
  34        6.7475
  35        6.7489
  36        6.7502
  37        7.2257
  38        7.2640
  39        7.5851
  40        7.5881
  41        7.9096
  42        8.0801
  43        8.0826
  44        8.5713
  45        9.6509
  46        9.6522
  47        9.6976
  48        9.6976
  49        9.7899
  50        9.8805
  51       10.6671
  52       10.6680
  53       10.6686
  54       10.6696
  55       11.4720
  56       11.4752
  57       11.6352
  58       11.6352
  59       11.7996
  60       11.8015
  61       12.0566
  62       12.0583
  63       12.1755
  64       12.1785
  65       12.4449
  66       12.4468
  67       12.7723
  68       12.7756
  69       13.2750
  70       13.2768
  71       13.5059
  72       13.5089
 
  0.0000000E+00  0.1428571E+00  0.1428571E+00  0.1166181E-01
   1       -2.4227
   2       -0.6421
   3       -0.6421
   4        0.0609
   5        0.0644
   6        0.7629
   7        0.7629
   8        1.1119
   9        1.8032
  10        1.8052
  11        1.8067
  12        1.8087
  13        2.4954
  14        2.4954
  15        3.1774
  16        3.1793
  17        3.1809
  18        3.1829
  19        3.5097
  20        3.5131
  21        3.8602
  22        4.5958
  23        4.5958
  24        5.2318
  25        5.2318
  26        5.7633
  27        5.7633
  28        6.3034
  29        6.3069
  30        6.5277
  31        7.3881
  32        7.3881
  33        7.8422
  34        7.8422
  35        8.1398
  36        8.1399
  37        8.1554
  38        8.2624
  39        8.2625
  40        8.5913
  41        8.5913
  42        8.9129
  43        8.9129
  44        9.4338
  45        9.4338
  46        9.7432
  47        9.7455
  48        9.7475
  49        9.7494
  50        9.7611
  51        9.8727
  52        9.8727
  53       10.1266
  54       10.1266
  55       10.6540
  56       10.6540
  57       11.0538
  58       11.0546
  59       11.0581
  60       11.0583
  61       11.0610
  62       11.0621
  63       11.7489
  64       12.1889
  65       12.1889
  66       12.3645
  67       12.3810
  68       12.3811
  69       12.5330
  70       12.5330
  71       13.0554
  72       13.0614
 
  0.1428571E+00  0.1428571E+00  0.1428571E+00  0.2332362E-01
   1       -2.3714
   2       -0.5935
   3       -0.5916
   4       -0.5897
   5        0.8109
   6        0.8128
   7        0.8146
   8        1.1598
   9        1.1617
  10        1.1636
  11        2.5414
  12        2.5431
  13        2.5444
  14        2.5444
  15        2.5457
  16        2.5473
  17        2.8846
  18        3.9060
  19        3.9079
  20        3.9098
  21        4.2090
  22        4.2096
  23        4.2101
  24        5.7107
  25        5.7112
  26        5.7118
  27        5.8097
  28        5.8103
  29        5.8108
  30        7.0143
  31        7.4177
  32        7.4192
  33        7.4208
  34        7.4208
  35        7.4224
  36        7.4239
  37        8.7538
  38        8.7541
  39        8.7559
  40        8.7559
  41        8.7578
  42        8.7581
  43        8.9563
  44        8.9569
  45        8.9575
  46        9.1369
  47        9.1388
  48        9.1407
  49       10.4445
  50       10.4456
  51       10.4469
  52       10.4470
  53       10.4482
  54       10.4493
  55       10.4906
  56       10.4927
  57       10.4936
  58       10.4937
  59       10.4948
  60       10.4968
  61       11.7569
  62       11.7581
  63       11.7593
  64       12.4549
  65       12.4561
  66       12.4573
  67       12.6454
  68       12.6458
  69       12.6469
  70       12.6469
  71       12.6480
  72       12.6483
 
  0.2857143E+00  0.1428571E+00  0.1428571E+00  0.2332362E-01
   1       -2.2179
   2       -1.1481
   3       -0.4403
   4       -0.4403
   5        0.6135
   6        0.6135
   7        0.9622
   8        0.9622
   9        1.3107
  10        1.6564
  11        2.0031
  12        2.0031
  13        2.3473
  14        2.6912
  15        2.6912
  16        3.3741
  17        3.3741
  18        3.7048
  19        3.7048
  20        4.0504
  21        4.6989
  22        4.7238
  23        4.7238
  24        4.7832
  25        5.4278
  26        5.9508
  27        5.9508
  28        6.3490
  29        6.3490
  30        6.4951
  31        6.4951
  32        6.9258
  33        6.9258
  34        7.3859
  35        7.3859
  36        7.8200
  37        7.8954
  38        7.8954
  39        8.0935
  40        8.6254
  41        8.6254
  42        8.9294
  43        8.9294
  44        9.0864
  45        9.0864
  46        9.3910
  47        9.3910
  48        9.4090
  49        9.4091
  50        9.9299
  51        9.9299
  52       10.2685
  53       10.2686
  54       10.3199
  55       10.7276
  56       10.8234
  57       10.8235
  58       11.2387
  59       11.2387
  60       11.4905
  61       11.4905
  62       11.9316
  63       11.9316
  64       12.5476
  65       12.5479
  66       12.5505
  67       12.5509
  68       13.0891
  69       13.0891
  70       13.2047
  71       13.2053
  72       13.2617
 
  0.4285714E+00  0.1428571E+00  0.1428571E+00  0.2332362E-01
   1       -1.9623
   2       -1.6054
   3       -0.1885
   4       -0.1885
   5        0.1630
   6        0.1630
   7        1.2109
   8        1.2110
   9        1.5577
  10        1.5582
  11        1.5591
  12        1.9046
  13        2.5903
  14        2.9350
  15        2.9350
  16        3.2743
  17        3.2743
  18        3.6088
  19        4.2840
  20        4.2911
  21        4.2912
  22        4.5921
  23        5.2881
  24        5.2881
  25        5.6204
  26        5.6204
  27        6.0920
  28        6.1846
  29        6.1846
  30        6.5105
  31        6.5105
  32        6.5767
  33        6.5767
  34        7.0502
  35        7.3878
  36        7.3878
  37        7.9036
  38        7.9036
  39        8.2095
  40        8.2095
  41        8.3663
  42        8.3663
  43        8.7148
  44        9.1730
  45        9.1730
  46        9.2900
  47        9.2900
  48        9.5054
  49        9.5054
  50        9.5151
  51        9.5152
  52        9.6902
  53       10.6546
  54       10.6546
  55       11.1290
  56       11.1290
  57       11.4910
  58       11.4910
  59       11.5364
  60       11.5364
  61       11.8249
  62       12.1192
  63       12.1192
  64       12.2108
  65       12.2108
  66       12.7141
  67       12.7141
  68       13.0837
  69       13.0837
  70       13.3966
  71       13.4317
  72       13.4317
 
  0.0000000E+00  0.2857143E+00  0.1428571E+00  0.2332362E-01
   1       -2.2690
   2       -1.1988
   3       -0.4907
   4        0.2113
   5        0.2148
   6        0.5635
   7        0.9124
   8        1.2592
   9        1.2627
  10        1.6069
  11        1.9521
  12        1.9539
  13        1.9559
  14        2.9804
  15        2.9839
  16        3.3235
  17        3.3256
  18        3.3273
  19        4.0022
  20        4.0058
  21        4.3037
  22        4.3069
  23        4.6510
  24        4.6777
  25        5.8053
  26        5.8086
  27        5.9041
  28        6.3072
  29        6.6656
  30        6.8827
  31        6.9314
  32        6.9349
  33        7.1063
  34        7.1100
  35        7.5775
  36        7.6325
  37        8.2610
  38        8.2646
  39        8.2787
  40        8.2904
  41        8.7023
  42        8.7062
  43        8.9585
  44        9.0464
  45        9.2288
  46        9.2328
  47        9.2509
  48        9.5731
  49        9.8711
  50        9.8842
  51       10.0204
  52       10.0243
  53       10.1380
  54       10.2205
  55       10.2796
  56       10.5491
  57       10.9842
  58       11.2198
  59       11.2560