 vasp.4.6.28 25Jul05 complex 
 executed on             LinuxIFC date 2016.10.19  12:38:10
 running on    8 nodes
 distr:  one band on    1 nodes,    8 groups


--------------------------------------------------------------------------------------------------------


 INCAR:
 POTCAR:   PAW_PBE Al 04Jan2001                   
 POTCAR:   PAW_PBE Al 04Jan2001                   
   VRHFIN =Al: s2p1                                                             
   LEXCH  = PE                                                                  
   EATOM  =    53.5387 eV,    3.9350 Ry                                         
                                                                                
   TITEL  = PAW_PBE Al 04Jan2001                                                
   LULTRA =        F    use ultrasoft PP ?                                      
   IUNSCR =        1    unscreen: 0-lin 1-nonlin 2-no                           
   RPACOR =    1.500    partial core radius                                     
   POMASS =   26.982; ZVAL   =    3.000    mass and valenz                      
   RCORE  =    1.900    outmost cutoff radius                                   
   RWIGS  =    2.650; RWIGS  =    1.402    wigner-seitz radius (au A)           
   ENMAX  =  240.300; ENMIN  =  180.225 eV                                      
   ICORE  =        2    local potential                                         
   LCOR   =        T    correct aug charges                                     
   LPAW   =        T    paw PP                                                  
   EAUG   =  291.052                                                            
   DEXC   =    -.041                                                            
   RMAX   =    2.974    core radius for proj-oper                               
   RAUG   =    1.300    factor for augmentation sphere                          
   RDEP   =    1.966    radius for radial grids                                 
   QCUT   =   -4.203; QGAM   =    8.405    optimization parameters              
                                                                                
   Description                                                                  
     l     E      TYP  RCUT    TYP  RCUT                                        
     0   .000     23  1.900                                                     
     0   .000     23  1.900                                                     
     1   .000     23  1.900                                                     
     1  1.000     23  1.900                                                     
     2   .000      7  1.900                                                     
  local pseudopotential read in
  partial core-charges read in
  atomic valenz-charges read in
  non local Contribution for L=           0  read in
    real space projection operators read in
  non local Contribution for L=           0  read in
    real space projection operators read in
  non local Contribution for L=           1  read in
    real space projection operators read in
  non local Contribution for L=           1  read in
    real space projection operators read in
    PAW grid and wavefunctions read in
 
   number of l-projection  operators is LMAX  =           4
   number of lm-projection operators is LMMAX =           8
 

 ----------------------------------------------------------------------------- 
|                                                                             |
|  ADVICE TO THIS USER RUNNING 'VASP/VAMP'   (HEAR YOUR MASTER'S VOICE ...):  |
|                                                                             |
|      You have a (more or less) 'large supercell' and for larger cells       |
|      it might be more efficient to use real space projection operators      |
|      So try LREAL= Auto  in the INCAR   file.                               |
|      Mind: If you want to do an extremely accurate calculations keep the    |
|      reciprocal projection scheme          (i.e. LREAL=.FALSE.)             |
|                                                                             |
 ----------------------------------------------------------------------------- 

 PAW_PBE Al 04Jan2001                   :
 energy of atom  1       EATOM=  -53.5387
 kinetic energy error for atom=    0.0003 (will be added to EATOM!!)
 
 EXHCAR: internal setup
 exchange correlation table for  LEXCH =        8
   RHO(1)=    0.500       N(1)  =     2000
   RHO(2)=  100.500       N(2)  =     4000
 
 POSCAR: Al                                      
  positions in direct lattice
  No initial velocities read in
 


--------------------------------------------------------------------------------------------------------


 ion  position               nearest neighbor table
   1  0.251  0.250  0.000-  18 2.70  22 2.70  26 2.70  28 2.70   9 2.71  11 2.71  13 2.71  15 2.71
                            25 2.72  21 2.72  27 2.72  17 2.72
   2  0.750  0.250  0.000-  10 2.71  12 2.71  14 2.71  16 2.71  17 2.71  18 2.71  21 2.71  22 2.71
                            25 2.71  26 2.71  27 2.71  28 2.71
   3  0.250  0.750  0.000-   9 2.71  11 2.71  13 2.71  15 2.71  19 2.71  20 2.71  23 2.71  24 2.71
                            25 2.71  26 2.71  27 2.71  28 2.71
   4  0.750  0.750  0.000-  10 2.71  12 2.71  14 2.71  16 2.71  19 2.71  20 2.71  23 2.71  24 2.71
                            25 2.71  26 2.71  27 2.71  28 2.71
   5  0.250  0.250  0.500-   9 2.71  11 2.71  13 2.71  15 2.71  17 2.71  18 2.71  21 2.71  22 2.71
                            29 2.71  30 2.71  31 2.71  32 2.71
   6  0.750  0.250  0.500-  10 2.71  12 2.71  14 2.71  16 2.71  17 2.71  18 2.71  21 2.71  22 2.71
                            29 2.71  30 2.71  31 2.71  32 2.71
   7  0.250  0.750  0.500-   9 2.71  11 2.71  13 2.71  15 2.71  19 2.71  20 2.71  23 2.71  24 2.71
                            29 2.71  30 2.71  31 2.71  32 2.71
   8  0.750  0.750  0.500-  10 2.71  12 2.71  14 2.71  16 2.71  19 2.71  20 2.71  23 2.71  24 2.71
                            29 2.71  30 2.71  31 2.71  32 2.71
   9  0.250  0.000  0.250-   3 2.71   5 2.71   7 2.71  17 2.71  18 2.71  19 2.71  20 2.71  25 2.71
                            26 2.71  29 2.71  30 2.71   1 2.71
  10  0.750  0.000  0.250-   2 2.71   4 2.71   6 2.71   8 2.71  17 2.71  18 2.71  19 2.71  20 2.71
                            25 2.71  26 2.71  29 2.71  30 2.71
  11  0.250  0.500  0.250-   3 2.71   5 2.71   7 2.71  17 2.71  18 2.71  19 2.71  20 2.71  27 2.71
                            28 2.71  31 2.71  32 2.71   1 2.71
  12  0.750  0.500  0.250-   2 2.71   4 2.71   6 2.71   8 2.71  17 2.71  18 2.71  19 2.71  20 2.71
                            27 2.71  28 2.71  31 2.71  32 2.71
  13  0.250  0.000  0.750-   3 2.71   5 2.71   7 2.71  21 2.71  22 2.71  23 2.71  24 2.71  25 2.71
                            26 2.71  29 2.71  30 2.71   1 2.71
  14  0.750  0.000  0.750-   2 2.71   4 2.71   6 2.71   8 2.71  21 2.71  22 2.71  23 2.71  24 2.71
                            25 2.71  26 2.71  29 2.71  30 2.71
  15  0.250  0.500  0.750-   3 2.71   5 2.71   7 2.71  21 2.71  22 2.71  23 2.71  24 2.71  27 2.71
                            28 2.71  31 2.71  32 2.71   1 2.71
  16  0.750  0.500  0.750-   2 2.71   4 2.71   6 2.71   8 2.71  21 2.71  22 2.71  23 2.71  24 2.71
                            27 2.71  28 2.71  31 2.71  32 2.71
  17  0.000  0.250  0.250-   2 2.71   5 2.71   6 2.71   9 2.71  10 2.71  11 2.71  12 2.71  25 2.71
                            27 2.71  29 2.71  31 2.71   1 2.72
  18  0.500  0.250  0.250-   1 2.70   2 2.71   5 2.71   6 2.71   9 2.71  10 2.71  11 2.71  12 2.71
                            26 2.71  28 2.71  30 2.71  32 2.71
  19  0.000  0.750  0.250-   3 2.71   4 2.71   7 2.71   8 2.71   9 2.71  10 2.71  11 2.71  12 2.71
                            25 2.71  27 2.71  29 2.71  31 2.71
  20  0.500  0.750  0.250-   3 2.71   4 2.71   7 2.71   8 2.71   9 2.71  10 2.71  11 2.71  12 2.71
                            26 2.71  28 2.71  30 2.71  32 2.71
  21  0.000  0.250  0.750-   2 2.71   5 2.71   6 2.71  13 2.71  14 2.71  15 2.71  16 2.71  25 2.71
                            27 2.71  29 2.71  31 2.71   1 2.72
  22  0.500  0.250  0.750-   1 2.70   2 2.71   5 2.71   6 2.71  13 2.71  14 2.71  15 2.71  16 2.71
                            26 2.71  28 2.71  30 2.71  32 2.71
  23  0.000  0.750  0.750-   3 2.71   4 2.71   7 2.71   8 2.71  13 2.71  14 2.71  15 2.71  16 2.71
                            25 2.71  27 2.71  29 2.71  31 2.71
  24  0.500  0.750  0.750-   3 2.71   4 2.71   7 2.71   8 2.71  13 2.71  14 2.71  15 2.71  16 2.71
                            26 2.71  28 2.71  30 2.71  32 2.71
  25  0.000  0.000  0.000-   2 2.71   3 2.71   4 2.71   9 2.71  10 2.71  13 2.71  14 2.71  17 2.71
                            19 2.71  21 2.71  23 2.71   1 2.72
  26  0.500  0.000  0.000-   1 2.70   2 2.71   3 2.71   4 2.71   9 2.71  10 2.71  13 2.71  14 2.71
                            18 2.71  20 2.71  22 2.71  24 2.71
  27  0.000  0.500  0.000-   2 2.71   3 2.71   4 2.71  11 2.71  12 2.71  15 2.71  16 2.71  17 2.71
                            19 2.71  21 2.71  23 2.71   1 2.72
  28  0.500  0.500  0.000-   1 2.70   2 2.71   3 2.71   4 2.71  11 2.71  12 2.71  15 2.71  16 2.71
                            18 2.71  20 2.71  22 2.71  24 2.71
  29  0.000  0.000  0.500-   5 2.71   6 2.71   7 2.71   8 2.71   9 2.71  10 2.71  13 2.71  14 2.71
                            17 2.71  19 2.71  21 2.71  23 2.71
  30  0.500  0.000  0.500-   5 2.71   6 2.71   7 2.71   8 2.71   9 2.71  10 2.71  13 2.71  14 2.71
                            18 2.71  20 2.71  22 2.71  24 2.71
  31  0.000  0.500  0.500-   5 2.71   6 2.71   7 2.71   8 2.71  11 2.71  12 2.71  15 2.71  16 2.71
                            17 2.71  19 2.71  21 2.71  23 2.71
  32  0.500  0.500  0.500-   5 2.71   6 2.71   7 2.71   8 2.71  11 2.71  12 2.71  15 2.71  16 2.71
                            18 2.71  20 2.71  22 2.71  24 2.71
 
  LATTYP: Found a simple cubic cell.
 ALAT       =     7.6706798100
  
  Lattice vectors:
  
 A1 = (   7.6706798100,   0.0000000000,   0.0000000000)
 A2 = (   0.0000000000,   7.6706798100,   0.0000000000)
 A3 = (   0.0000000000,   0.0000000000,   7.6706798100)
 Subroutine PRICEL returns:
 Original cell was already a primitive cell.
 

Analysis of symmetry for initial positions (statically):

 Routine SETGRP: Setting up the symmetry group for a 
 simple cubic supercell.


 Subroutine GETGRP returns: Found  8 space group operations
 (whereof  2 operations were pure point group operations)
 out of a pool of 48 trial point group operations.


The static configuration has the point symmetry C_1h.
 The point group associated with its full space group is C_4v.

Analysis of symmetry for dynamics (positions and initial velocities):

 Subroutine DYNSYM returns: Found  8 space group operations
 (whereof  2 operations were pure point group operations)
 out of a pool of  8 trial space group operations
 (whereof  2 operations were pure point group operations)
 and found also     1 'primitive' translations


The dynamic configuration has the point symmetry C_1h.
 The point group associated with its full space group is C_4v.
 
 
 KPOINTS: Automatic mesh                          

Automatic generation of k-mesh.
 generate k-points for:   7   7   7
 
 Subroutine IBZKPT returns following result:
 ===========================================
 
 Found     40 irreducible k-points:
 
 Following reciprocal coordinates:
            Coordinates               Weight
  0.000000  0.000000  0.000000      1.000000
  0.142857  0.000000  0.000000      2.000000
  0.285714  0.000000  0.000000      2.000000
  0.428571  0.000000  0.000000      2.000000
  0.000000  0.142857  0.000000      4.000000
  0.142857  0.142857  0.000000      8.000000
  0.285714  0.142857  0.000000      8.000000
  0.428571  0.142857  0.000000      8.000000
  0.000000  0.285714  0.000000      4.000000
  0.142857  0.285714  0.000000      8.000000
  0.285714  0.285714  0.000000      8.000000
  0.428571  0.285714  0.000000      8.000000
  0.000000  0.428571  0.000000      4.000000
  0.142857  0.428571  0.000000      8.000000
  0.285714  0.428571  0.000000      8.000000
  0.428571  0.428571  0.000000      8.000000
  0.000000  0.142857  0.142857      4.000000
  0.142857  0.142857  0.142857      8.000000
  0.285714  0.142857  0.142857      8.000000
  0.428571  0.142857  0.142857      8.000000
  0.000000  0.285714  0.142857      8.000000
  0.142857  0.285714  0.142857     16.000000
  0.285714  0.285714  0.142857     16.000000
  0.428571  0.285714  0.142857     16.000000
  0.000000  0.428571  0.142857      8.000000
  0.142857  0.428571  0.142857     16.000000
  0.285714  0.428571  0.142857     16.000000
  0.428571  0.428571  0.142857     16.000000
  0.000000  0.285714  0.285714      4.000000
  0.142857  0.285714  0.285714      8.000000
  0.285714  0.285714  0.285714      8.000000
  0.428571  0.285714  0.285714      8.000000
  0.000000  0.428571  0.285714      8.000000
  0.142857  0.428571  0.285714     16.000000
  0.285714  0.428571  0.285714     16.000000
  0.428571  0.428571  0.285714     16.000000
  0.000000  0.428571  0.428571      4.000000
  0.142857  0.428571  0.428571      8.000000
  0.285714  0.428571  0.428571      8.000000
  0.428571  0.428571  0.428571      8.000000
 
 Following cartesian coordinates:
            Coordinates               Weight
  0.000000  0.000000  0.000000      1.000000
  0.018624  0.000000  0.000000      2.000000
  0.037248  0.000000  0.000000      2.000000
  0.055871  0.000000  0.000000      2.000000
  0.000000  0.018624  0.000000      4.000000
  0.018624  0.018624  0.000000      8.000000
  0.037248  0.018624  0.000000      8.000000
  0.055871  0.018624  0.000000      8.000000
  0.000000  0.037248  0.000000      4.000000
  0.018624  0.037248  0.000000      8.000000
  0.037248  0.037248  0.000000      8.000000
  0.055871  0.037248  0.000000      8.000000
  0.000000  0.055871  0.000000      4.000000
  0.018624  0.055871  0.000000      8.000000
  0.037248  0.055871  0.000000      8.000000
  0.055871  0.055871  0.000000      8.000000
  0.000000  0.018624  0.018624      4.000000
  0.018624  0.018624  0.018624      8.000000
  0.037248  0.018624  0.018624      8.000000
  0.055871  0.018624  0.018624      8.000000
  0.000000  0.037248  0.018624      8.000000
  0.018624  0.037248  0.018624     16.000000
  0.037248  0.037248  0.018624     16.000000
  0.055871  0.037248  0.018624     16.000000
  0.000000  0.055871  0.018624      8.000000
  0.018624  0.055871  0.018624     16.000000
  0.037248  0.055871  0.018624     16.000000
  0.055871  0.055871  0.018624     16.000000
  0.000000  0.037248  0.037248      4.000000
  0.018624  0.037248  0.037248      8.000000
  0.037248  0.037248  0.037248      8.000000
  0.055871  0.037248  0.037248      8.000000
  0.000000  0.055871  0.037248      8.000000
  0.018624  0.055871  0.037248     16.000000
  0.037248  0.055871  0.037248     16.000000
  0.055871  0.055871  0.037248     16.000000
  0.000000  0.055871  0.055871      4.000000
  0.018624  0.055871  0.055871      8.000000
  0.037248  0.055871  0.055871      8.000000
  0.055871  0.055871  0.055871      8.000000
 


--------------------------------------------------------------------------------------------------------




 Dimension of arrays:
   k-Points           NKPTS =     40   number of bands    NBANDS=     72
   number of dos      NEDOS =    301   number of ions     NIONS =     32
   non local maximal  LDIM  =      4   non local SUM 2l+1 LMDIM =      8
   total plane-waves  NPLWV = 175616
   max r-space proj   IRMAX =      1   max aug-charges    IRDMAX=  15341
   dimension x,y,z NGX =    56 NGY =   56 NGZ =   56
   dimension x,y,z NGXF=   112 NGYF=  112 NGZF=  112
   support grid    NGXF=   112 NGYF=  112 NGZF=  112
   ions per type =              32
 NGX,Y,Z   is equivalent  to a cutoff of  12.14, 12.14, 12.14 a.u.
 NGXF,Y,Z  is equivalent  to a cutoff of  24.27, 24.27, 24.27 a.u.


 I would recommend the setting:
   dimension x,y,z NGX =    56 NGY =   56 NGZ =   56
 SYSTEM =  unknown system                          
 POSCAR =  Al                                      

 Startparameter for this run:
   NWRITE =      2    write-flag & timer
   PREC   = accura    medium, high low
   ISTART =      0    job   : 0-new  1-cont  2-samecut
   ICHARG =      2    charge: 1-file 2-atom 10-const
   ISPIN  =      1    spin polarized calculation?
   LNONCOLLINEAR =      F non collinear calculations
   LSORBIT =      F    spin-orbit coupling
   INIWAV =      1    electr: 0-lowe 1-rand  2-diag
   LASPH  =      F    aspherical Exc in radial PAW
   METAGGA=      F    non-selfconsistent MetaGGA calc.

 Electronic Relaxation 1
   ENCUT  =  500.0 eV  36.75 Ry    6.06 a.u.  13.99 13.99 13.99*2*pi/ulx,y,z
   ENINI  =  500.0     initial cutoff
   ENAUG  =  291.1 eV  augmentation charge cutoff
   NELM   =     60;   NELMIN=  2; NELMDL= -5     # of ELM steps 
   EDIFF  = 0.1E-07   stopping-criterion for ELM
   LREAL  =      F    real-space projection
   LCOMPAT=      F    compatible to vasp.4.4
   LREAL_COMPAT= F    compatible to vasp.4.5.1-3
   GGA_COMPAT  = T    GGA compatible to vasp.4.4-vasp.4.6
   LMAXPAW     = -100 max onsite density
   LMAXMIX     =    2 max onsite mixed and CHGCAR
   VOSKOWN=      0    Vosko Wilk Nusair interpolation
   ROPT   =    0.00000
 Ionic relaxation
   EDIFFG = 0.1E-06   stopping-criterion for IOM
   NSW    =      0    number of steps for IOM
   NBLOCK =      1;   KBLOCK =      1    inner block; outer block 
   IBRION =     -1    ionic relax: 0-MD 1-quasi-New 2-CG
   NFREE  =      0    steps in history (QN), initial steepest desc. (CG)
   ISIF   =      2    stress and relaxation
   IWAVPR =     10    prediction:  0-non 1-charg 2-wave 3-comb
   ISYM   =      2    0-nonsym 1-usesym 2-fastsym
   LCORR  =      T    Harris-Foulkes like correction to forces

   POTIM  =   0.50    time-step for ionic-motion
   TEIN   =    0.0    initial temperature
   TEBEG  =    0.0;   TEEND  =   0.0 temperature during run
   SMASS  =  -3.00    Nose mass-parameter (am)
   estimated Nose-frequenzy (Omega)   =  0.10E-29 period in steps =****** mass=  -0.134E-26a.u.
   NPACO  =    256;   APACO  = 16.0  distance and # of slots for P.C.
   PSTRESS=    0.0 pullay stress

  Mass of Ions in am
   POMASS =  26.98
  Ionic Valenz
   ZVAL   =   3.00
  Atomic Wigner-Seitz radii
   RWIGS  =  -1.00
   NELECT =      96.0000    total number of electrons
   NUPDOWN=      -1.0000    fix difference up-down

 DOS related values:
   EMIN   =  10.00;   EMAX   =-10.00  energy-range for DOS
   ISMEAR =     0;   SIGMA  =   0.01  broadening in eV -4-tet -1-fermi 0-gaus

 Electronic relaxation 2 (details)
   IALGO  =     38    algorithm
   LDIAG  =      T    sub-space diagonalisation
   IMIX   =      4    mixing-type and parameters
     AMIX     =   0.40;   BMIX     =  1.00
     AMIX_MAG =   1.60;   BMIX_MAG =  1.00
     AMIN     =   0.10
     WC   =   100.;   INIMIX=   1;  MIXPRE=   1

 Intra band minimization:
   WEIMIN = 0.0000     energy-eigenvalue tresh-hold
   EBREAK =  0.38E-10  absolut break condition
   DEPER  =   0.30     relativ break condition  

   TIME   =   0.10     timestep for ELM

  volume/ion in A,a.u.               =      14.10        95.18
  Fermi-wavevector in a.u.,eV,Ry     =   0.977233 12.993347  0.954984

 Second variation
   LSECVAR=     F    do a second variation
 
 Write flags
   LWAVE  =      F    write WAVECAR
   LCHARG =      F    write CHGCAR
   LVTOT  =      F    write LOCPOT, local potential
   LELF   =      F    write electronic localiz. function (ELF)
   LORBIT =      0    0 simple, 1 ext, 2 COOP (PROOUT)


 Dipole corrections
   IDIPOL =      0    1-x, 2-y, 3-z
   LDIPOL =      F    correct potential



--------------------------------------------------------------------------------------------------------


 Static calculation
 charge density will be updated during run
 non-spin polarized calculation
 Variant of blocked Davidson
 Davidson routine will perform the subspace rotation
 performe sub-space diagonalisation
    after iterative eigenvector-optimisation
 modified Broyden-mixing scheme, WC =      100.0
 initial mixing is a Kerker type mixing with AMIX =  0.4000 and BMIX =      1.0000
 Hartree-type preconditioning will be used
 using additional bands           24
 reciprocal scheme for non local part
 use partial core corrections
 calculate Harris-corrections to forces 
   (improved forces if not selfconsistent)
 use gradient corrections 
 use of overlap-Matrix (Vanderbilt PP)
 Gauss-broadening in eV      SIGMA  =   0.01


--------------------------------------------------------------------------------------------------------


  energy-cutoff  :      500.00
  volume of cell :      451.34
      direct lattice vectors                 reciprocal lattice vectors
     7.670679810  0.000000000  0.000000000     0.130366542  0.000000000  0.000000000
     0.000000000  7.670679810  0.000000000     0.000000000  0.130366542  0.000000000
     0.000000000  0.000000000  7.670679810     0.000000000  0.000000000  0.130366542

  length of vectors
     7.670679810  7.670679810  7.670679810     0.130366542  0.130366542  0.130366542


 
 k-points in units of 2pi/SCALE and weight: Automatic mesh                          
   0.00000000  0.00000000  0.00000000       0.003
   0.01862379  0.00000000  0.00000000       0.006
   0.03724758  0.00000000  0.00000000       0.006
   0.05587138  0.00000000  0.00000000       0.006
   0.00000000  0.01862379  0.00000000       0.012
   0.01862379  0.01862379  0.00000000       0.023
   0.03724758  0.01862379  0.00000000       0.023
   0.05587138  0.01862379  0.00000000       0.023
   0.00000000  0.03724758  0.00000000       0.012
   0.01862379  0.03724758  0.00000000       0.023
   0.03724758  0.03724758  0.00000000       0.023
   0.05587138  0.03724758  0.00000000       0.023
   0.00000000  0.05587138  0.00000000       0.012
   0.01862379  0.05587138  0.00000000       0.023
   0.03724758  0.05587138  0.00000000       0.023
   0.05587138  0.05587138  0.00000000       0.023
   0.00000000  0.01862379  0.01862379       0.012
   0.01862379  0.01862379  0.01862379       0.023
   0.03724758  0.01862379  0.01862379       0.023
   0.05587138  0.01862379  0.01862379       0.023
   0.00000000  0.03724758  0.01862379       0.023
   0.01862379  0.03724758  0.01862379       0.047
   0.03724758  0.03724758  0.01862379       0.047
   0.05587138  0.03724758  0.01862379       0.047
   0.00000000  0.05587138  0.01862379       0.023
   0.01862379  0.05587138  0.01862379       0.047
   0.03724758  0.05587138  0.01862379       0.047
   0.05587138  0.05587138  0.01862379       0.047
   0.00000000  0.03724758  0.03724758       0.012
   0.01862379  0.03724758  0.03724758       0.023
   0.03724758  0.03724758  0.03724758       0.023
   0.05587138  0.03724758  0.03724758       0.023
   0.00000000  0.05587138  0.03724758       0.023
   0.01862379  0.05587138  0.03724758       0.047
   0.03724758  0.05587138  0.03724758       0.047
   0.05587138  0.05587138  0.03724758       0.047
   0.00000000  0.05587138  0.05587138       0.012
   0.01862379  0.05587138  0.05587138       0.023
   0.03724758  0.05587138  0.05587138       0.023
   0.05587138  0.05587138  0.05587138       0.023
 
 k-points in reciprocal lattice and weights: Automatic mesh                          
   0.00000000  0.00000000  0.00000000       0.003
   0.14285714  0.00000000  0.00000000       0.006
   0.28571429  0.00000000  0.00000000       0.006
   0.42857143  0.00000000  0.00000000       0.006
   0.00000000  0.14285714  0.00000000       0.012
   0.14285714  0.14285714  0.00000000       0.023
   0.28571429  0.14285714  0.00000000       0.023
   0.42857143  0.14285714  0.00000000       0.023
   0.00000000  0.28571429  0.00000000       0.012
   0.14285714  0.28571429  0.00000000       0.023
   0.28571429  0.28571429  0.00000000       0.023
   0.42857143  0.28571429  0.00000000       0.023
   0.00000000  0.42857143  0.00000000       0.012
   0.14285714  0.42857143  0.00000000       0.023
   0.28571429  0.42857143  0.00000000       0.023
   0.42857143  0.42857143  0.00000000       0.023
   0.00000000  0.14285714  0.14285714       0.012
   0.14285714  0.14285714  0.14285714       0.023
   0.28571429  0.14285714  0.14285714       0.023
   0.42857143  0.14285714  0.14285714       0.023
   0.00000000  0.28571429  0.14285714       0.023
   0.14285714  0.28571429  0.14285714       0.047
   0.28571429  0.28571429  0.14285714       0.047
   0.42857143  0.28571429  0.14285714       0.047
   0.00000000  0.42857143  0.14285714       0.023
   0.14285714  0.42857143  0.14285714       0.047
   0.28571429  0.42857143  0.14285714       0.047
   0.42857143  0.42857143  0.14285714       0.047
   0.00000000  0.28571429  0.28571429       0.012
   0.14285714  0.28571429  0.28571429       0.023
   0.28571429  0.28571429  0.28571429       0.023
   0.42857143  0.28571429  0.28571429       0.023
   0.00000000  0.42857143  0.28571429       0.023
   0.14285714  0.42857143  0.28571429       0.047
   0.28571429  0.42857143  0.28571429       0.047
   0.42857143  0.42857143  0.28571429       0.047
   0.00000000  0.42857143  0.42857143       0.012
   0.14285714  0.42857143  0.42857143       0.023
   0.28571429  0.42857143  0.42857143       0.023
   0.42857143  0.42857143  0.42857143       0.023
 
 position of ions in fractional coordinates (direct lattice) 
   0.25130367  0.25000000  0.00000000
   0.75000000  0.25000000  0.00000000
   0.25000000  0.75000000  0.00000000
   0.75000000  0.75000000  0.00000000
   0.25000000  0.25000000  0.50000000
   0.75000000  0.25000000  0.50000000
   0.25000000  0.75000000  0.50000000
   0.75000000  0.75000000  0.50000000
   0.25000000  0.00000000  0.25000000
   0.75000000  0.00000000  0.25000000
   0.25000000  0.50000000  0.25000000
   0.75000000  0.50000000  0.25000000
   0.25000000  0.00000000  0.75000000
   0.75000000  0.00000000  0.75000000
   0.25000000  0.50000000  0.75000000
   0.75000000  0.50000000  0.75000000
   0.00000000  0.25000000  0.25000000
   0.50000000  0.25000000  0.25000000
   0.00000000  0.75000000  0.25000000
   0.50000000  0.75000000  0.25000000
   0.00000000  0.25000000  0.75000000
   0.50000000  0.25000000  0.75000000
   0.00000000  0.75000000  0.75000000
   0.50000000  0.75000000  0.75000000
   0.00000000  0.00000000  0.00000000
   0.50000000  0.00000000  0.00000000
   0.00000000  0.50000000  0.00000000
   0.50000000  0.50000000  0.00000000
   0.00000000  0.00000000  0.50000000
   0.50000000  0.00000000  0.50000000
   0.00000000  0.50000000  0.50000000
   0.50000000  0.50000000  0.50000000
 
 position of ions in cartesian coordinates  (Angst):
   1.92766995  1.91766995  0.00000000
   5.75300986  1.91766995  0.00000000
   1.91766995  5.75300986  0.00000000
   5.75300986  5.75300986  0.00000000
   1.91766995  1.91766995  3.83533990
   5.75300986  1.91766995  3.83533990
   1.91766995  5.75300986  3.83533990
   5.75300986  5.75300986  3.83533990
   1.91766995  0.00000000  1.91766995
   5.75300986  0.00000000  1.91766995
   1.91766995  3.83533990  1.91766995
   5.75300986  3.83533990  1.91766995
   1.91766995  0.00000000  5.75300986
   5.75300986  0.00000000  5.75300986
   1.91766995  3.83533990  5.75300986
   5.75300986  3.83533990  5.75300986
   0.00000000  1.91766995  1.91766995
   3.83533990  1.91766995  1.91766995
   0.00000000  5.75300986  1.91766995
   3.83533990  5.75300986  1.91766995
   0.00000000  1.91766995  5.75300986
   3.83533990  1.91766995  5.75300986
   0.00000000  5.75300986  5.75300986
   3.83533990  5.75300986  5.75300986
   0.00000000  0.00000000  0.00000000
   3.83533990  0.00000000  0.00000000
   0.00000000  3.83533990  0.00000000
   3.83533990  3.83533990  0.00000000
   0.00000000  0.00000000  3.83533990
   3.83533990  0.00000000  3.83533990
   0.00000000  3.83533990  3.83533990
   3.83533990  3.83533990  3.83533990
 


--------------------------------------------------------------------------------------------------------


 k-point  1 :  0.00000.00000.0000  plane waves:  11459
 k-point  2 :  0.14290.00000.0000  plane waves:  11424
 k-point  3 :  0.28570.00000.0000  plane waves:  11428
 k-point  4 :  0.42860.00000.0000  plane waves:  11448
 k-point  5 :  0.00000.14290.0000  plane waves:  11424
 k-point  6 :  0.14290.14290.0000  plane waves:  11422
 k-point  7 :  0.28570.14290.0000  plane waves:  11449
 k-point  8 :  0.42860.14290.0000  plane waves:  11449
 k-point  9 :  0.00000.28570.0000  plane waves:  11428
 k-point 10 :  0.14290.28570.0000  plane waves:  11449
 k-point 11 :  0.28570.28570.0000  plane waves:  11446
 k-point 12 :  0.42860.28570.0000  plane waves:  11456
 k-point 13 :  0.00000.42860.0000  plane waves:  11448
 k-point 14 :  0.14290.42860.0000  plane waves:  11449
 k-point 15 :  0.28570.42860.0000  plane waves:  11456
 k-point 16 :  0.42860.42860.0000  plane waves:  11458
 k-point 17 :  0.00000.14290.1429  plane waves:  11422
 k-point 18 :  0.14290.14290.1429  plane waves:  11425
 k-point 19 :  0.28570.14290.1429  plane waves:  11458
 k-point 20 :  0.42860.14290.1429  plane waves:  11451
 k-point 21 :  0.00000.28570.1429  plane waves:  11449
 k-point 22 :  0.14290.28570.1429  plane waves:  11458
 k-point 23 :  0.28570.28570.1429  plane waves:  11464
 k-point 24 :  0.42860.28570.1429  plane waves:  11469
 k-point 25 :  0.00000.42860.1429  plane waves:  11449
 k-point 26 :  0.14290.42860.1429  plane waves:  11451
 k-point 27 :  0.28570.42860.1429  plane waves:  11469
 k-point 28 :  0.42860.42860.1429  plane waves:  11468
 k-point 29 :  0.00000.28570.2857  plane waves:  11446
 k-point 30 :  0.14290.28570.2857  plane waves:  11464
 k-point 31 :  0.28570.28570.2857  plane waves:  11473
 k-point 32 :  0.42860.28570.2857  plane waves:  11468
 k-point 33 :  0.00000.42860.2857  plane waves:  11456
 k-point 34 :  0.14290.42860.2857  plane waves:  11469
 k-point 35 :  0.28570.42860.2857  plane waves:  11468
 k-point 36 :  0.42860.42860.2857  plane waves:  11474
 k-point 37 :  0.00000.42860.4286  plane waves:  11458
 k-point 38 :  0.14290.42860.4286  plane waves:  11468
 k-point 39 :  0.28570.42860.4286  plane waves:  11474
 k-point 40 :  0.42860.42860.4286  plane waves:  11476

 maximum and minimum number of plane-waves per node :  11476 11422

 maximum number of plane-waves:  11476
 maximal index in each direction: 
   IXMAX= 13   IYMAX= 13   IZMAX= 13
   IXMIN=-14   IYMIN=-14   IZMIN=-14

 NGX is ok and might be reduce to  56
 NGY is ok and might be reduce to  56
 NGZ is ok and might be reduce to  56

 parallel 3dFFT wavefunction:
    minimum data exchange during FFTs selected (reduces bandwidth)
 parallel 3dFFT charge:
    minimum data exchange during FFTs selected (reduces bandwidth)

 For storing wavefunctions  527.75 MBYTES are necessary
 For predicting wavefunctions   29.21 MBYTES are necessary
Broyden mixing: mesh for mixing (old mesh)
   NGX = 27   NGY = 27   NGZ = 27
  (NGX  =112   NGY  =112   NGZ  =112)
 gives a total of  19683 points
 initial charge density was supplied:
 charge density of overlapping atoms calculated
 number of electron   96.0000000 magnetization 
 keeping initial charge density in first step


--------------------------------------------------------------------------------------------------------


 Maximum index for augmentation-charges         1900 (set IRDMAX)


--------------------------------------------------------------------------------------------------------


 First call to EWALD:  gamma=   0.231
 Maximum number of real-space cells 3x 3x 3
 Maximum number of reciprocal cells 3x 3x 3

    FEWALD:  VPU time    0.01: CPU time    0.01


----------------------------------------- Iteration    1(   1)  ---------------------------------------


    POTLOK:  VPU time    0.13: CPU time    0.13
    SETDIJ:  VPU time    0.01: CPU time    0.01
    EDDAV :  VPU time   17.33: CPU time   17.36
    DOS   :  VPU time    0.00: CPU time   -0.00
    ------------------------------------------
      LOOP:  VPU time   17.47: CPU time   17.51

 eigenvalue-minimisations  :  5760
 total energy-change (2. order) : 0.1410611E+03  (-0.3383090E+04)
 number of electron   96.0000000 magnetization 
 augmentation part    96.0000000 magnetization 

 Free energy of the ion-electron system (eV)
  ---------------------------------------------------
  alpha Z        PSCENC =        -7.62051090
  Ewald energy   TEWEN  =     -2478.79554032
  -1/2 Hartree   DENC   =        -2.10376842
  -V(xc)+E(xc)   XCENC  =      -830.38955597
  PAW double counting   =      1137.73615723     -115.16745734
  entropy T*S    EENTRO =        -0.00042721
  eigenvalues    EBANDS =       724.17305995
  atomic energy  EATOM  =      1713.22913220
  ---------------------------------------------------
  free energy    TOTEN  =       141.06108922 eV

  energy without entropy =      141.06151643  energy(sigma->0) =      141.06130282


--------------------------------------------------------------------------------------------------------




----------------------------------------- Iteration    1(   2)  ---------------------------------------


    EDDAV :  VPU time   18.15: CPU time   18.16
    DOS   :  VPU time    0.00: CPU time   -0.00
    ------------------------------------------
      LOOP:  VPU time   18.15: CPU time   18.16

 eigenvalue-minimisations  :  6816
 total energy-change (2. order) :-0.2449303E+03  (-0.2278767E+03)
 number of electron   96.0000000 magnetization 
 augmentation part    96.0000000 magnetization 

 Free energy of the ion-electron system (eV)
  ---------------------------------------------------
  alpha Z        PSCENC =        -7.62051090
  Ewald energy   TEWEN  =     -2478.79554032
  -1/2 Hartree   DENC   =        -2.10376842
  -V(xc)+E(xc)   XCENC  =      -830.38955597
  PAW double counting   =      1137.73615723     -115.16745734
  entropy T*S    EENTRO =        -0.00036216
  eigenvalues    EBANDS =       479.24271333
  atomic energy  EATOM  =      1713.22913220
  ---------------------------------------------------
  free energy    TOTEN  =      -103.86919235 eV

  energy without entropy =     -103.86883019  energy(sigma->0) =     -103.86901127


--------------------------------------------------------------------------------------------------------




----------------------------------------- Iteration    1(   3)  ---------------------------------------


    EDDAV :  VPU time   17.10: CPU time   17.10
    DOS   :  VPU time    0.00: CPU time   -0.00
    ------------------------------------------
      LOOP:  VPU time   17.11: CPU time   17.11

 eigenvalue-minimisations  :  7056
 total energy-change (2. order) :-0.1310812E+02  (-0.1255040E+02)
 number of electron   96.0000000 magnetization 
 augmentation part    96.0000000 magnetization 

 Free energy of the ion-electron system (eV)
  ---------------------------------------------------
  alpha Z        PSCENC =        -7.62051090
  Ewald energy   TEWEN  =     -2478.79554032
  -1/2 Hartree   DENC   =        -2.10376842
  -V(xc)+E(xc)   XCENC  =      -830.38955597
  PAW double counting   =      1137.73615723     -115.16745734
  entropy T*S    EENTRO =        -0.00009852
  eigenvalues    EBANDS =       466.13433196
  atomic energy  EATOM  =      1713.22913220
  ---------------------------------------------------
  free energy    TOTEN  =      -116.97731008 eV

  energy without entropy =     -116.97721156  energy(sigma->0) =     -116.97726082


--------------------------------------------------------------------------------------------------------




----------------------------------------- Iteration    1(   4)  ---------------------------------------


    EDDAV :  VPU time   16.63: CPU time   16.63
    DOS   :  VPU time    0.00: CPU time   -0.00
    ------------------------------------------
      LOOP:  VPU time   16.64: CPU time   16.64

 eigenvalue-minimisations  :  6744
 total energy-change (2. order) :-0.2231809E+00  (-0.2215766E+00)
 number of electron   96.0000000 magnetization 
 augmentation part    96.0000000 magnetization 

 Free energy of the ion-electron system (eV)
  ---------------------------------------------------
  alpha Z        PSCENC =        -7.62051090
  Ewald energy   TEWEN  =     -2478.79554032
  -1/2 Hartree   DENC   =        -2.10376842
  -V(xc)+E(xc)   XCENC  =      -830.38955597
  PAW double counting   =      1137.73615723     -115.16745734
  entropy T*S    EENTRO =        -0.00009158
  eigenvalues    EBANDS =       465.91114415
  atomic energy  EATOM  =      1713.22913220
  ---------------------------------------------------
  free energy    TOTEN  =      -117.20049096 eV

  energy without entropy =     -117.20039937  energy(sigma->0) =     -117.20044516


--------------------------------------------------------------------------------------------------------




----------------------------------------- Iteration    1(   5)  ---------------------------------------


    EDDAV :  VPU time   16.55: CPU time   16.55
    DOS   :  VPU time    0.00: CPU time   -0.00
    CHARGE:  VPU time    0.60: CPU time    0.60
    MIXING:  VPU time    0.00: CPU time    0.00
    ------------------------------------------
      LOOP:  VPU time   17.16: CPU time   17.16

 eigenvalue-minimisations  :  6704
 total energy-change (2. order) :-0.2559346E-02  (-0.2557847E-02)
 number of electron   95.9999996 magnetization 
 augmentation part    -1.1003396 magnetization 

 Broyden mixing:
  rms(total) = 0.56841E+00    rms(broyden)= 0.56841E+00
  rms(prec ) = 0.81313E+00
  weight for this iteration     100.00

 Free energy of the ion-electron system (eV)
  ---------------------------------------------------
  alpha Z        PSCENC =        -7.62051090
  Ewald energy   TEWEN  =     -2478.79554032
  -1/2 Hartree   DENC   =        -2.10376842
  -V(xc)+E(xc)   XCENC  =      -830.38955597
  PAW double counting   =      1137.73615723     -115.16745734
  entropy T*S    EENTRO =        -0.00009174
  eigenvalues    EBANDS =       465.90858496
  atomic energy  EATOM  =      1713.22913220
  ---------------------------------------------------
  free energy    TOTEN  =      -117.20305030 eV

  energy without entropy =     -117.20295856  energy(sigma->0) =     -117.20300443


--------------------------------------------------------------------------------------------------------




----------------------------------------- Iteration    1(   6)  ---------------------------------------


    POTLOK:  VPU time    0.10: CPU time    0.10
    SETDIJ:  VPU time    0.01: CPU time    0.01
    EDDAV :  VPU time   16.49: CPU time   16.49
    DOS   :  VPU time    0.00: CPU time   -0.00
    CHARGE:  VPU time    0.57: CPU time    0.58
    MIXING:  VPU time    0.00: CPU time    0.00
    ------------------------------------------
      LOOP:  VPU time   17.18: CPU time   17.18

 eigenvalue-minimisations  :  6680
 total energy-change (2. order) : 0.5015236E+00  (-0.2967607E-02)
 number of electron   95.9999996 magnetization 
 augmentation part    -1.1132789 magnetization 

 Broyden mixing:
  rms(total) = 0.35368E+00    rms(broyden)= 0.35368E+00
  rms(prec ) = 0.50817E+00
  weight for this iteration     100.00

 eigenvalues of (default mixing * dielectric matrix)
  average eigenvalue GAMMA=   2.6387
  2.6387

 Free energy of the ion-electron system (eV)
  ---------------------------------------------------
  alpha Z        PSCENC =        -7.62051090
  Ewald energy   TEWEN  =     -2478.79554032
  -1/2 Hartree   DENC   =        -2.47784173
  -V(xc)+E(xc)   XCENC  =      -828.84711367
  PAW double counting   =      1147.06015434     -124.99612644
  entropy T*S    EENTRO =        -0.00009205
  eigenvalues    EBANDS =       465.74641185
  atomic energy  EATOM  =      1713.22913220
  ---------------------------------------------------
  free energy    TOTEN  =      -116.70152671 eV

  energy without entropy =     -116.70143466  energy(sigma->0) =     -116.70148068


--------------------------------------------------------------------------------------------------------




----------------------------------------- Iteration    1(   7)  ---------------------------------------


    POTLOK:  VPU time    0.10: CPU time    0.10
    SETDIJ:  VPU time    0.01: CPU time    0.01
    EDDAV :  VPU time   15.71: CPU time   15.71
    DOS   :  VPU time    0.00: CPU time   -0.00
    CHARGE:  VPU time    0.57: CPU time    0.57
    MIXING:  VPU time    0.00: CPU time    0.00
    ------------------------------------------
      LOOP:  VPU time   16.40: CPU time   16.40

 eigenvalue-minimisations  :  6264
 total energy-change (2. order) : 0.3603005E+00  (-0.9616225E-02)
 number of electron   95.9999996 magnetization 
 augmentation part    -1.1417670 magnetization 

 Broyden mixing:
  rms(total) = 0.13409E-01    rms(broyden)= 0.13408E-01
  rms(prec ) = 0.15563E-01
  weight for this iteration     100.00

 eigenvalues of (default mixing * dielectric matrix)
  average eigenvalue GAMMA=   2.4588
  2.4588  2.4588

 Free energy of the ion-electron system (eV)
  ---------------------------------------------------
  alpha Z        PSCENC =        -7.62051090
  Ewald energy   TEWEN  =     -2478.79554032
  -1/2 Hartree   DENC   =        -4.54189658
  -V(xc)+E(xc)   XCENC  =      -825.84616900
  PAW double counting   =      1161.43430703     -140.28983682
  entropy T*S    EENTRO =        -0.00009400
  eigenvalues    EBANDS =       466.08938222
  atomic energy  EATOM  =      1713.22913220
  ---------------------------------------------------
  free energy    TOTEN  =      -116.34122616 eV

  energy without entropy =     -116.34113217  energy(sigma->0) =     -116.34117917


--------------------------------------------------------------------------------------------------------




----------------------------------------- Iteration    1(   8)  ---------------------------------------


    POTLOK:  VPU time    0.10: CPU time    0.10
    SETDIJ:  VPU time    0.01: CPU time    0.01
    EDDAV :  VPU time   16.98: CPU time   16.97
    DOS   :  VPU time    0.00: CPU time   -0.00
    CHARGE:  VPU time    0.56: CPU time    0.56
    MIXING:  VPU time    0.00: CPU time    0.00
    ------------------------------------------
      LOOP:  VPU time   17.66: CPU time   17.66

 eigenvalue-minimisations  :  6984
 total energy-change (2. order) :-0.2106474E-03  (-0.1047801E-03)
 number of electron   95.9999996 magnetization 
 augmentation part    -1.1441982 magnetization 

 Broyden mixing:
  rms(total) = 0.52445E-02    rms(broyden)= 0.52445E-02
  rms(prec ) = 0.64780E-02
  weight for this iteration     100.00

 eigenvalues of (default mixing * dielectric matrix)
  average eigenvalue GAMMA=   2.0771
  1.0020  2.6722  2.5571

 Free energy of the ion-electron system (eV)
  ---------------------------------------------------
  alpha Z        PSCENC =        -7.62051090
  Ewald energy   TEWEN  =     -2478.79554032
  -1/2 Hartree   DENC   =        -4.57019158
  -V(xc)+E(xc)   XCENC  =      -825.80790251
  PAW double counting   =      1161.22614800     -140.08112507
  entropy T*S    EENTRO =        -0.00009417
  eigenvalues    EBANDS =       466.07864754
  atomic energy  EATOM  =      1713.22913220
  ---------------------------------------------------
  free energy    TOTEN  =      -116.34143681 eV

  energy without entropy =     -116.34134264  energy(sigma->0) =     -116.34138973


--------------------------------------------------------------------------------------------------------




----------------------------------------- Iteration    1(   9)  ---------------------------------------


    POTLOK:  VPU time    0.10: CPU time    0.10
    SETDIJ:  VPU time    0.01: CPU time    0.01
    EDDAV :  VPU time   16.18: CPU time   16.18
    DOS   :  VPU time    0.00: CPU time   -0.00
    CHARGE:  VPU time    0.56: CPU time    0.56
    MIXING:  VPU time    0.00: CPU time    0.00
    ------------------------------------------
      LOOP:  VPU time   16.85: CPU time   16.85

 eigenvalue-minimisations  :  6584
 total energy-change (2. order) :-0.3156077E-04  (-0.6713585E-05)
 number of electron   95.9999996 magnetization 
 augmentation part    -1.1450559 magnetization 

 Broyden mixing:
  rms(total) = 0.48725E-03    rms(broyden)= 0.48723E-03
  rms(prec ) = 0.74119E-03
  weight for this iteration     100.00

 eigenvalues of (default mixing * dielectric matrix)
  average eigenvalue GAMMA=   1.8398
  2.6677  2.5748  1.2476  0.8692

 Free energy of the ion-electron system (eV)
  ---------------------------------------------------
  alpha Z        PSCENC =        -7.62051090
  Ewald energy   TEWEN  =     -2478.79554032
  -1/2 Hartree   DENC   =        -4.60442203
  -V(xc)+E(xc)   XCENC  =      -825.76530501
  PAW double counting   =      1161.09475315     -139.95343245
  entropy T*S    EENTRO =        -0.00009413
  eigenvalues    EBANDS =       466.07395111
  atomic energy  EATOM  =      1713.22913220
  ---------------------------------------------------
  free energy    TOTEN  =      -116.34146837 eV

  energy without entropy =     -116.34137424  energy(sigma->0) =     -116.34142131


--------------------------------------------------------------------------------------------------------




----------------------------------------- Iteration    1(  10)  ---------------------------------------


    POTLOK:  VPU time    0.10: CPU time    0.10
    SETDIJ:  VPU time    0.01: CPU time    0.01
    EDDAV :  VPU time   17.01: CPU time   17.01
    DOS   :  VPU time    0.00: CPU time   -0.00
    CHARGE:  VPU time    0.58: CPU time    0.59
    MIXING:  VPU time    0.00: CPU time    0.00
    ------------------------------------------
      LOOP:  VPU time   17.71: CPU time   17.71

 eigenvalue-minimisations  :  7000
 total energy-change (2. order) :-0.3028064E-05  (-0.3999475E-06)
 number of electron   95.9999996 magnetization 
 augmentation part    -1.1452028 magnetization 

 Broyden mixing:
  rms(total) = 0.20798E-03    rms(broyden)= 0.20798E-03
  rms(prec ) = 0.27227E-03
  weight for this iteration     100.00

 eigenvalues of (default mixing * dielectric matrix)
  average eigenvalue GAMMA=   1.8680
  2.6252  2.6252  2.2366  1.0291  0.8238

 Free energy of the ion-electron system (eV)
  ---------------------------------------------------
  alpha Z        PSCENC =        -7.62051090
  Ewald energy   TEWEN  =     -2478.79554032
  -1/2 Hartree   DENC   =        -4.60745454
  -V(xc)+E(xc)   XCENC  =      -825.76160783
  PAW double counting   =      1161.06889302     -139.92810012
  entropy T*S    EENTRO =        -0.00009409
  eigenvalues    EBANDS =       466.07381117
  atomic energy  EATOM  =      1713.22913220
  ---------------------------------------------------
  free energy    TOTEN  =      -116.34147140 eV

  energy without entropy =     -116.34137731  energy(sigma->0) =     -116.34142436


--------------------------------------------------------------------------------------------------------




----------------------------------------- Iteration    1(  11)  ---------------------------------------


    POTLOK:  VPU time    0.10: CPU time    0.10
    SETDIJ:  VPU time    0.01: CPU time    0.01
    EDDAV :  VPU time   16.59: CPU time   16.59
    DOS   :  VPU time    0.00: CPU time   -0.00
    CHARGE:  VPU time    0.59: CPU time    0.59
    MIXING:  VPU time    0.00: CPU time    0.00
    ------------------------------------------
      LOOP:  VPU time   17.29: CPU time   17.29

 eigenvalue-minimisations  :  6736
 total energy-change (2. order) : 0.8333348E-06  (-0.2561521E-07)
 number of electron   95.9999996 magnetization 
 augmentation part    -1.1452297 magnetization 

 Broyden mixing:
  rms(total) = 0.82165E-04    rms(broyden)= 0.82164E-04
  rms(prec ) = 0.97675E-04
  weight for this iteration     100.00

 eigenvalues of (default mixing * dielectric matrix)
  average eigenvalue GAMMA=   1.7964
  2.6815  2.5832  2.4865  0.8091  1.1878  1.0304

 Free energy of the ion-electron system (eV)
  ---------------------------------------------------
  alpha Z        PSCENC =        -7.62051090
  Ewald energy   TEWEN  =     -2478.79554032
  -1/2 Hartree   DENC   =        -4.60707544
  -V(xc)+E(xc)   XCENC  =      -825.76203458
  PAW double counting   =      1161.04775809     -139.90694324
  entropy T*S    EENTRO =        -0.00009406
  eigenvalues    EBANDS =       466.07383768
  atomic energy  EATOM  =      1713.22913220
  ---------------------------------------------------
  free energy    TOTEN  =      -116.34147057 eV

  energy without entropy =     -116.34137650  energy(sigma->0) =     -116.34142353


--------------------------------------------------------------------------------------------------------




----------------------------------------- Iteration    1(  12)  ---------------------------------------


    POTLOK:  VPU time    0.10: CPU time    0.10
    SETDIJ:  VPU time    0.01: CPU time    0.01
    EDDAV :  VPU time   12.19: CPU time   12.19
    DOS   :  VPU time    0.00: CPU time   -0.00
    CHARGE:  VPU time    0.57: CPU time    0.57
    MIXING:  VPU time    0.00: CPU time    0.00
    ------------------------------------------
      LOOP:  VPU time   12.87: CPU time   12.87

 eigenvalue-minimisations  :  4280
 total energy-change (2. order) : 0.3362541E-06  (-0.1692978E-08)
 number of electron   95.9999996 magnetization 
 augmentation part    -1.1452333 magnetization 

 Broyden mixing:
  rms(total) = 0.14626E-04    rms(broyden)= 0.14626E-04
  rms(prec ) = 0.21885E-04
  weight for this iteration     100.00

 eigenvalues of (default mixing * dielectric matrix)
  average eigenvalue GAMMA=   1.7347
  2.6432  2.6432  2.4962  1.4861  1.0568  1.0155  0.8022

 Free energy of the ion-electron system (eV)
  ---------------------------------------------------
  alpha Z        PSCENC =        -7.62051090
  Ewald energy   TEWEN  =     -2478.79554032
  -1/2 Hartree   DENC   =        -4.60736109
  -V(xc)+E(xc)   XCENC  =      -825.76172843
  PAW double counting   =      1161.03937515     -139.89868968
  entropy T*S    EENTRO =        -0.00009406
  eigenvalues    EBANDS =       466.07394690
  atomic energy  EATOM  =      1713.22913220
  ---------------------------------------------------
  free energy    TOTEN  =      -116.34147023 eV

  energy without entropy =     -116.34137617  energy(sigma->0) =     -116.34142320


--------------------------------------------------------------------------------------------------------




----------------------------------------- Iteration    1(  13)  ---------------------------------------


    POTLOK:  VPU time    0.10: CPU time    0.10
    SETDIJ:  VPU time    0.01: CPU time    0.01
    EDDAV :  VPU time   11.27: CPU time   11.27
    DOS   :  VPU time    0.00: CPU time   -0.00
    CHARGE:  VPU time    0.58: CPU time    0.58
    MIXING:  VPU time    0.00: CPU time    0.00
    ------------------------------------------
      LOOP:  VPU time   11.97: CPU time   11.97

 eigenvalue-minimisations  :  3760
 total energy-change (2. order) : 0.9928794E-07  (-0.2802447E-09)
 number of electron   95.9999996 magnetization 
 augmentation part    -1.1452336 magnetization 

 Broyden mixing:
  rms(total) = 0.29034E-05    rms(broyden)= 0.29033E-05
  rms(prec ) = 0.41608E-05
  weight for this iteration     100.00

 eigenvalues of (default mixing * dielectric matrix)
  average eigenvalue GAMMA=   1.6847
  2.6645  2.6645  2.5163  1.5844  1.2876  1.0484  0.9106  0.8014

 Free energy of the ion-electron system (eV)
  ---------------------------------------------------
  alpha Z        PSCENC =        -7.62051090
  Ewald energy   TEWEN  =     -2478.79554032
  -1/2 Hartree   DENC   =        -4.60730091
  -V(xc)+E(xc)   XCENC  =      -825.76180237
  PAW double counting   =      1161.03748281     -139.89678405
  entropy T*S    EENTRO =        -0.00009407
  eigenvalues    EBANDS =       466.07394746
  atomic energy  EATOM  =      1713.22913220
  ---------------------------------------------------
  free energy    TOTEN  =      -116.34147013 eV

  energy without entropy =     -116.34137607  energy(sigma->0) =     -116.34142310


--------------------------------------------------------------------------------------------------------




----------------------------------------- Iteration    1(  14)  ---------------------------------------


    POTLOK:  VPU time    0.10: CPU time    0.10
    SETDIJ:  VPU time    0.01: CPU time    0.01
    EDDAV :  VPU time   11.33: CPU time   11.33
    DOS   :  VPU time    0.00: CPU time   -0.00
    CHARGE:  VPU time    0.57: CPU time    0.57
    MIXING:  VPU time    0.00: CPU time    0.00
    ------------------------------------------
      LOOP:  VPU time   12.02: CPU time   12.02

 eigenvalue-minimisations  :  3784
 total energy-change (2. order) : 0.1233389E-07  (-0.4466345E-10)
 number of electron   95.9999996 magnetization 
 augmentation part    -1.1452353 magnetization 

 Broyden mixing:
  rms(total) = 0.10117E-05    rms(broyden)= 0.10116E-05
  rms(prec ) = 0.13650E-05
  weight for this iteration     100.00

 eigenvalues of (default mixing * dielectric matrix)
  average eigenvalue GAMMA=   1.6729
  2.6795  2.6795  2.5203  1.9339  1.3608  0.8013  1.0085  1.0360  1.0360

 Free energy of the ion-electron system (eV)
  ---------------------------------------------------
  alpha Z        PSCENC =        -7.62051090
  Ewald energy   TEWEN  =     -2478.79554032
  -1/2 Hartree   DENC   =        -4.60731427
  -V(xc)+E(xc)   XCENC  =      -825.76179006
  PAW double counting   =      1161.03726987     -139.89657172
  entropy T*S    EENTRO =        -0.00009407
  eigenvalues    EBANDS =       466.07394915
  atomic energy  EATOM  =      1713.22913220
  ---------------------------------------------------
  free energy    TOTEN  =      -116.34147012 eV

  energy without entropy =     -116.34137605  energy(sigma->0) =     -116.34142309


--------------------------------------------------------------------------------------------------------




----------------------------------------- Iteration    1(  15)  ---------------------------------------


    POTLOK:  VPU time    0.10: CPU time    0.10
    SETDIJ:  VPU time    0.01: CPU time    0.01
    EDDAV :  VPU time   11.14: CPU time   11.14
    DOS   :  VPU time    0.00: CPU time   -0.00
    ------------------------------------------
      LOOP:  VPU time   11.25: CPU time   11.25

 eigenvalue-minimisations  :  3728
 total energy-change (2. order) : 0.3378091E-08  (-0.8992068E-11)
 number of electron   95.9999996 magnetization 
 augmentation part    -1.1452353 magnetization 

 Free energy of the ion-electron system (eV)
  ---------------------------------------------------
  alpha Z        PSCENC =        -7.62051090
  Ewald energy   TEWEN  =     -2478.79554032
  -1/2 Hartree   DENC   =        -4.60731219
  -V(xc)+E(xc)   XCENC  =      -825.76179405
  PAW double counting   =      1161.03719097     -139.89648973
  entropy T*S    EENTRO =        -0.00009407
  eigenvalues    EBANDS =       466.07394797
  atomic energy  EATOM  =      1713.22913220
  ---------------------------------------------------
  free energy    TOTEN  =      -116.34147012 eV

  energy without entropy =     -116.34137605  energy(sigma->0) =     -116.34142308


--------------------------------------------------------------------------------------------------------




 average (electrostatic) potential at core
  the test charge radii are     1.0406
  (the norm of the test charge is              1.0000)
       1 -70.6649       2 -70.6650       3 -70.6649       4 -70.6649       5 -70.6649
       6 -70.6649       7 -70.6649       8 -70.6649       9 -70.6649      10 -70.6649
      11 -70.6649      12 -70.6649      13 -70.6649      14 -70.6649      15 -70.6649
      16 -70.6649      17 -70.6655      18 -70.6643      19 -70.6650      20 -70.6649
      21 -70.6655      22 -70.6643      23 -70.6650      24 -70.6649      25 -70.6655
      26 -70.6643      27 -70.6655      28 -70.6643      29 -70.6650      30 -70.6649
      31 -70.6650      32 -70.6649
 
 
 
 E-fermi :   9.7227     XC(G=0): -10.7782     alpha+bet :-17.4032
   add alpha+bet to get absolut eigen values

 k-point   1 :       0.0000    0.0000    0.0000
  band No.  band energies     occupation 
      1      -2.5253      2.00000
      2      -0.0419      2.00000
      3      -0.0378      2.00000
      4      -0.0378      2.00000
      5      -0.0378      2.00000
      6      -0.0378      2.00000
      7      -0.0337      2.00000
      8       2.3907      2.00000
      9       2.3952      2.00000
     10       2.3952      2.00000
     11       2.3971      2.00000
     12       2.3973      2.00000
     13       2.3973      2.00000
     14       2.3973      2.00000
     15       2.3973      2.00000
     16       2.3976      2.00000
     17       2.3995      2.00000
     18       2.3995      2.00000
     19       2.4040      2.00000
     20       4.5022      2.00000
     21       4.5022      2.00000
     22       4.5022      2.00000
     23       4.5022      2.00000
     24       5.1332      2.00000
     25       5.1332      2.00000
     26       5.1332      2.00000
     27       5.1333      2.00000
     28       6.4358      2.00000
     29       6.4358      2.00000
     30       6.4358      2.00000
     31       8.0631      2.00000
     32       8.0631      2.00000
     33       8.0631      2.00000
     34       8.6889      2.00000
     35       8.6889      2.00000
     36       8.6937      2.00000
     37       8.6937      2.00000
     38       8.6939      2.00000
     39       8.6939      2.00000
     40       8.6939      2.00000
     41       8.6940      2.00000
     42       8.6941      2.00000
     43       8.6941      2.00000
     44       8.6989      2.00000
     45       8.6989      2.00000
     46       9.6059      2.00000
     47       9.6106      2.00000
     48       9.6106      2.00000
     49       9.6106      2.00000
     50       9.6106      2.00000
     51       9.6153      2.00000
     52      10.9638      0.00000
     53      10.9638      0.00000
     54      10.9651      0.00000
     55      10.9680      0.00000
     56      10.9682      0.00000
     57      10.9682      0.00000
     58      10.9682      0.00000
     59      10.9683      0.00000
     60      10.9684      0.00000
     61      10.9713      0.00000
     62      10.9726      0.00000
     63      10.9726      0.00000
     64      11.7788      0.00000
     65      11.7802      0.00000
     66      11.7803      0.00000
     67      11.7803      0.00000
     68      11.7803      0.00000
     69      11.7817      0.00000
     70      12.9770      0.00000
     71      12.9796      0.00000
     72      12.9810      0.00000

 k-point   2 :       0.1429    0.0000    0.0000
  band No.  band energies     occupation 
      1      -2.4740      2.00000
      2      -0.6926      2.00000
      3       0.0124      2.00000
      4       0.0124      2.00000
      5       0.0124      2.00000
      6       0.0124      2.00000
      7       0.7130      2.00000
      8       1.7565      2.00000
      9       1.7565      2.00000
     10       1.7565      2.00000
     11       1.7565      2.00000
     12       2.4464      2.00000
     13       2.4464      2.00000
     14       2.4464      2.00000
     15       2.4464      2.00000
     16       3.1316      2.00000
     17       3.1316      2.00000
     18       3.1316      2.00000
     19       3.1316      2.00000
     20       4.1140      2.00000
     21       4.1140      2.00000
     22       4.1140      2.00000
     23       4.1140      2.00000
     24       5.6148      2.00000
     25       5.6148      2.00000
     26       5.6148      2.00000
     27       5.6148      2.00000
     28       5.7164      2.00000
     29       6.4817      2.00000
     30       6.4817      2.00000
     31       7.9717      2.00000
     32       7.9717      2.00000
     33       7.9717      2.00000
     34       7.9717      2.00000
     35       8.0937      2.00000
     36       8.0937      2.00000
     37       8.1096      2.00000
     38       8.1096      2.00000
     39       8.7402      2.00000
     40       8.7402      2.00000
     41       8.7402      2.00000
     42       8.7402      2.00000
     43       8.8679      2.00000
     44       9.3873      2.00000
     45       9.3873      2.00000
     46       9.4554      2.00000
     47       9.4554      2.00000
     48      10.1185      0.00000
     49      10.1185      0.00000
     50      10.1185      0.00000
     51      10.1185      0.00000
     52      10.3548      0.00000
     53      10.3548      0.00000
     54      10.3552      0.00000
     55      10.3554      0.00000
     56      10.3640      0.00000
     57      10.3641      0.00000
     58      10.3646      0.00000
     59      10.3646      0.00000
     60      11.6659      0.00000
     61      11.6659      0.00000
     62      11.6659      0.00000
     63      11.6659      0.00000
     64      12.0205      0.00000
     65      12.0205      0.00000
     66      12.1288      0.00000
     67      12.1288      0.00000
     68      12.1288      0.00000
     69      12.1288      0.00000
     70      12.3624      0.00000
     71      12.3624      0.00000
     72      12.3624      0.00000

 k-point   3 :       0.2857    0.0000    0.0000
  band No.  band energies     occupation 
      1      -2.3202      2.00000
      2      -1.2496      2.00000
      3       0.1629      2.00000
      4       0.1630      2.00000
      5       0.1630      2.00000
      6       0.1630      2.00000
      7       1.2113      2.00000
      8       1.2113      2.00000
      9       1.2113      2.00000
     10       1.2113      2.00000
     11       1.5574      2.00000
     12       2.5934      2.00000
     13       2.5934      2.00000
     14       2.5934      2.00000
     15       2.5934      2.00000
     16       3.6082      2.00000
     17       3.6083      2.00000
     18       3.6083      2.00000
     19       3.6083      2.00000
     20       3.9563      2.00000
     21       3.9563      2.00000
     22       3.9563      2.00000
     23       3.9564      2.00000
     24       4.6032      2.00000
     25       6.3998      2.00000
     26       6.3998      2.00000
     27       6.3998      2.00000
     28       6.3998      2.00000
     29       6.6196      2.00000
     30       6.6196      2.00000
     31       6.9074      2.00000
     32       6.9074      2.00000
     33       6.9074      2.00000
     34       6.9074      2.00000
     35       7.5863      2.00000
     36       7.5863      2.00000
     37       8.2477      2.00000
     38       8.2477      2.00000
     39       8.8792      2.00000
     40       8.8792      2.00000
     41       8.8792      2.00000
     42       8.8792      2.00000
     43       9.1231      2.00000
     44       9.1232      2.00000
     45       9.3169      2.00000
     46       9.3169      2.00000
     47       9.3169      2.00000
     48       9.3169      2.00000
     49       9.8532      0.00000
     50       9.8532      0.00000
     51       9.8532      0.00000
     52       9.8532      0.00000
     53      10.1739      0.00000
     54      10.1739      0.00000
     55      10.2371      0.00000
     56      10.6030      0.00000
     57      10.6031      0.00000
     58      10.6031      0.00000
     59      10.6031      0.00000
     60      11.8256      0.00000
     61      11.8256      0.00000
     62      11.8256      0.00000
     63      11.8256      0.00000
     64      12.4572      0.00000
     65      12.4572      0.00000
     66      12.4572      0.00000
     67      12.4572      0.00000
     68      12.6052      0.00000
     69      12.6052      0.00000
     70      13.0808      0.00000
     71      13.0831      0.00000
     72      13.1101      0.00000

 k-point   4 :       0.4286    0.0000    0.0000
  band No.  band energies     occupation 
      1      -2.0644      2.00000
      2      -1.7072      2.00000
      3       0.4133      2.00000
      4       0.4134      2.00000
      5       0.4134      2.00000
      6       0.4134      2.00000
      7       0.7632      2.00000
      8       0.7632      2.00000
      9       0.7632      2.00000
     10       0.7632      2.00000
     11       2.4922      2.00000
     12       2.8375      2.00000
     13       2.8375      2.00000
     14       2.8375      2.00000
     15       2.8375      2.00000
     16       3.1772      2.00000
     17       3.1772      2.00000
     18       3.1772      2.00000
     19       3.1772      2.00000
     20       3.5118      2.00000
     21       4.8671      2.00000
     22       4.8671      2.00000
     23       4.8671      2.00000
     24       4.8671      2.00000
     25       5.8562      2.00000
     26       5.8562      2.00000
     27       5.8562      2.00000
     28       5.8562      2.00000
     29       6.8495      2.00000
     30       6.8495      2.00000
     31       7.1717      2.00000
     32       7.1717      2.00000
     33       7.2936      2.00000
     34       7.2936      2.00000
     35       7.2936      2.00000
     36       7.2936      2.00000
     37       8.2731      2.00000
     38       8.2731      2.00000
     39       8.2731      2.00000
     40       8.2732      2.00000
     41       8.4725      2.00000
     42       8.4725      2.00000
     43       8.7730      2.00000
     44       8.7730      2.00000
     45       9.1109      2.00000
     46       9.1109      2.00000
     47       9.1109      2.00000
     48       9.1109      2.00000
     49       9.4355      2.00000
     50       9.4356      2.00000
     51       9.4356      2.00000
     52       9.4356      2.00000
     53      10.9752      0.00000
     54      10.9752      0.00000
     55      10.9752      0.00000
     56      10.9752      0.00000
     57      11.0533      0.00000
     58      11.0533      0.00000
     59      11.3675      0.00000
     60      11.3676      0.00000
     61      11.3676      0.00000
     62      11.3676      0.00000
     63      11.7549      0.00000
     64      12.0238      0.00000
     65      12.0238      0.00000
     66      13.3417      0.00000
     67      13.3417      0.00000
     68      13.3417      0.00000
     69      13.3417      0.00000
     70      13.3651      0.00000
     71      13.3661      0.00000
     72      13.3715      0.00000

 k-point   5 :       0.0000    0.1429    0.0000
  band No.  band energies     occupation 
      1      -2.4740      2.00000
      2      -0.6926      2.00000
      3       0.0093      2.00000
      4       0.0124      2.00000
      5       0.0124      2.00000
      6       0.0156      2.00000
      7       0.7130      2.00000
      8       1.7533      2.00000
      9       1.7565      2.00000
     10       1.7565      2.00000
     11       1.7597      2.00000
     12       2.4442      2.00000
     13       2.4451      2.00000
     14       2.4477      2.00000
     15       2.4486      2.00000
     16       3.1283      2.00000
     17       3.1316      2.00000
     18       3.1316      2.00000
     19       3.1348      2.00000
     20       4.1120      2.00000
     21       4.1128      2.00000
     22       4.1152      2.00000
     23       4.1160      2.00000
     24       5.6127      2.00000
     25       5.6135      2.00000
     26       5.6160      2.00000
     27       5.6168      2.00000
     28       5.7164      2.00000
     29       6.4817      2.00000
     30       6.4817      2.00000
     31       7.9681      2.00000
     32       7.9717      2.00000
     33       7.9717      2.00000
     34       7.9752      2.00000
     35       8.0936      2.00000
     36       8.0937      2.00000
     37       8.1096      2.00000
     38       8.1097      2.00000
     39       8.7372      2.00000
     40       8.7402      2.00000
     41       8.7403      2.00000
     42       8.7433      2.00000
     43       8.8679      2.00000
     44       9.3873      2.00000
     45       9.3873      2.00000
     46       9.4554      2.00000
     47       9.4554      2.00000
     48      10.1153      0.00000
     49      10.1185      0.00000
     50      10.1185      0.00000
     51      10.1217      0.00000
     52      10.3524      0.00000
     53      10.3536      0.00000
     54      10.3565      0.00000
     55      10.3578      0.00000
     56      10.3612      0.00000
     57      10.3640      0.00000
     58      10.3645      0.00000
     59      10.3673      0.00000
     60      11.6628      0.00000
     61      11.6659      0.00000
     62      11.6659      0.00000
     63      11.6691      0.00000
     64      12.0205      0.00000
     65      12.0205      0.00000
     66      12.1274      0.00000
     67      12.1288      0.00000
     68      12.1288      0.00000
     69      12.1301      0.00000
     70      12.3609      0.00000
     71      12.3624      0.00000
     72      12.3634      0.00000

 k-point   6 :       0.1429    0.1429    0.0000
  band No.  band energies     occupation 
      1      -2.4227      2.00000
      2      -0.6434      2.00000
      3      -0.6408      2.00000
      4       0.0626      2.00000
      5       0.0626      2.00000
      6       0.7616      2.00000
      7       0.7642      2.00000
      8       1.1119      2.00000
      9       1.8041      2.00000
     10       1.8051      2.00000
     11       1.8068      2.00000
     12       1.8078      2.00000
     13       2.4949      2.00000
     14       2.4958      2.00000
     15       3.1783      2.00000
     16       3.1793      2.00000
     17       3.1810      2.00000
     18       3.1820      2.00000
     19       3.5114      2.00000
     20       3.5114      2.00000
     21       3.8602      2.00000
     22       4.5958      2.00000
     23       4.5958      2.00000
     24       5.2318      2.00000
     25       5.2318      2.00000
     26       5.7630      2.00000
     27       5.7637      2.00000
     28       6.3051      2.00000
     29       6.3052      2.00000
     30       6.5277      2.00000
     31       7.3868      2.00000
     32       7.3894      2.00000
     33       7.8422      2.00000
     34       7.8422      2.00000
     35       8.1383      2.00000
     36       8.1414      2.00000
     37       8.1553      2.00000
     38       8.2625      2.00000
     39       8.2625      2.00000
     40       8.5901      2.00000
     41       8.5925      2.00000
     42       8.9124      2.00000
     43       8.9133      2.00000
     44       9.4322      2.00000
     45       9.4353      2.00000
     46       9.7446      0.00201
     47       9.7456      0.00125
     48       9.7472      0.00053
     49       9.7483      0.00029
     50       9.7609      0.00000
     51       9.8717      0.00000
     52       9.8737      0.00000
     53      10.1251      0.00000
     54      10.1281      0.00000
     55      10.6540      0.00000
     56      10.6540      0.00000
     57      11.0553      0.00000
     58      11.0559      0.00000
     59      11.0568      0.00000
     60      11.0579      0.00000
     61      11.0602      0.00000
     62      11.0620      0.00000
     63      11.7489      0.00000
     64      12.1886      0.00000
     65      12.1893      0.00000
     66      12.3644      0.00000
     67      12.3810      0.00000
     68      12.3812      0.00000
     69      12.5319      0.00000
     70      12.5340      0.00000
     71      13.0585      0.00000
     72      13.0608      0.00000

 k-point   7 :       0.2857    0.1429    0.0000
  band No.  band energies     occupation 
      1      -2.2690      2.00000
      2      -1.1988      2.00000
      3      -0.4907      2.00000
      4       0.2131      2.00000
      5       0.2131      2.00000
      6       0.5635      2.00000
      7       0.9124      2.00000
      8       1.2610      2.00000
      9       1.2610      2.00000
     10       1.6069      2.00000
     11       1.9532      2.00000
     12       1.9540      2.00000
     13       1.9546      2.00000
     14       2.9822      2.00000
     15       2.9822      2.00000
     16       3.3248      2.00000
     17       3.3254      2.00000
     18       3.3263      2.00000
     19       4.0040      2.00000
     20       4.0040      2.00000
     21       4.3053      2.00000
     22       4.3053      2.00000
     23       4.6511      2.00000
     24       4.6777      2.00000
     25       5.8069      2.00000
     26       5.8070      2.00000
     27       5.9041      2.00000
     28       6.3072      2.00000
     29       6.6656      2.00000
     30       6.8827      2.00000
     31       6.9332      2.00000
     32       6.9332      2.00000
     33       7.1082      2.00000
     34       7.1082      2.00000
     35       7.5775      2.00000
     36       7.6325      2.00000
     37       8.2629      2.00000
     38       8.2629      2.00000
     39       8.2786      2.00000
     40       8.2903      2.00000
     41       8.7042      2.00000
     42       8.7042      2.00000
     43       8.9586      2.00000
     44       9.0464      2.00000
     45       9.2309      2.00000
     46       9.2309      2.00000
     47       9.2507      2.00000
     48       9.5731      2.00000
     49       9.8711      0.00000
     50       9.8842      0.00000
     51      10.0223      0.00000
     52      10.0224      0.00000
     53      10.1380      0.00000
     54      10.2205      0.00000
     55      10.2796      0.00000
     56      10.5490      0.00000
     57      10.9843      0.00000
     58      11.2199      0.00000
     59      11.2568      0.00000
     60      11.2569      0.00000
     61      11.8489      0.00000
     62      11.8489      0.00000
     63      11.8511      0.00000
     64      12.4978      0.00000
     65      12.5076      0.00000
     66      12.5310      0.00000
     67      12.5310      0.00000
     68      12.6946      0.00000
     69      12.8141      0.00000
     70      13.1277      0.00000
     71      13.1571      0.00000
     72      13.1937      0.00000

 k-point   8 :       0.4286    0.1429    0.0000
  band No.  band energies     occupation 
      1      -2.0133      2.00000
      2      -1.6563      2.00000
      3      -0.2389      2.00000
      4       0.1129      2.00000
      5       0.4634      2.00000
      6       0.4634      2.00000
      7       0.8130      2.00000
      8       0.8130      2.00000
      9       1.1613      2.00000
     10       1.5087      2.00000
     11       2.2002      2.00000
     12       2.2003      2.00000
     13       2.5406      2.00000
     14       2.5436      2.00000
     15       2.5443      2.00000
     16       3.5600      2.00000
     17       3.5661      2.00000
     18       3.5664      2.00000
     19       3.8983      2.00000
     20       3.8983      2.00000
     21       4.2436      2.00000
     22       4.9131      2.00000
     23       4.9131      2.00000
     24       5.2423      2.00000
     25       5.5786      2.00000
     26       5.8980      2.00000
     27       5.8980      2.00000
     28       6.1382      2.00000
     29       6.4650      2.00000
     30       6.5528      2.00000
     31       6.6819      2.00000
     32       6.6820      2.00000
     33       6.8956      2.00000
     34       7.2178      2.00000
     35       7.6590      2.00000
     36       7.6590      2.00000
     37       8.0040      2.00000
     38       8.0040      2.00000
     39       8.4842      2.00000
     40       8.4842      2.00000
     41       8.5065      2.00000
     42       8.5098      2.00000
     43       8.7769      2.00000
     44       8.8095      2.00000
     45       8.8095      2.00000
     46       8.8338      2.00000
     47       8.9818      2.00000
     48       8.9818      2.00000
     49       9.2631      2.00000
     50       9.5496      2.00000
     51       9.8053      0.00000
     52      10.1306      0.00000
     53      10.4213      0.00000
     54      10.5615      0.00000
     55      10.7778      0.00000
     56      11.1000      0.00000
     57      11.4797      0.00000
     58      11.5597      0.00000
     59      11.6721      0.00000
     60      11.6721      0.00000
     61      11.7930      0.00000
     62      12.0231      0.00000
     63      12.0706      0.00000
     64      12.0737      0.00000
     65      12.0738      0.00000
     66      12.7302      0.00000
     67      12.7302      0.00000
     68      12.7347      0.00000
     69      13.3998      0.00000
     70      13.4293      0.00000
     71      13.6962      0.00000
     72      13.6991      0.00000

 k-point   9 :       0.0000    0.2857    0.0000
  band No.  band energies     occupation 
      1      -2.3202      2.00000
      2      -1.2496      2.00000
      3       0.1598      2.00000
      4       0.1630      2.00000
      5       0.1630      2.00000
      6       0.1661      2.00000
      7       1.2081      2.00000
      8       1.2113      2.00000
      9       1.2113      2.00000
     10       1.2145      2.00000
     11       1.5574      2.00000
     12       2.5912      2.00000
     13       2.5921      2.00000
     14       2.5947      2.00000
     15       2.5956      2.00000
     16       3.6061      2.00000
     17       3.6069      2.00000
     18       3.6096      2.00000
     19       3.6104      2.00000
     20       3.9530      2.00000
     21       3.9563      2.00000
     22       3.9563      2.00000
     23       3.9596      2.00000
     24       4.6032      2.00000
     25       6.3976      2.00000
     26       6.3985      2.00000
     27       6.4012      2.00000
     28       6.4020      2.00000
     29       6.6196      2.00000
     30       6.6196      2.00000
     31       6.9040      2.00000
     32       6.9074      2.00000
     33       6.9074      2.00000
     34       6.9108      2.00000
     35       7.5863      2.00000
     36       7.5863      2.00000
     37       8.2476      2.00000
     38       8.2477      2.00000
     39       8.8762      2.00000
     40       8.8792      2.00000
     41       8.8792      2.00000
     42       8.8822      2.00000
     43       9.1231      2.00000
     44       9.1232      2.00000
     45       9.3144      2.00000
     46       9.3155      2.00000
     47       9.3183      2.00000
     48       9.3194      2.00000
     49       9.8501      0.00000
     50       9.8532      0.00000
     51       9.8532      0.00000
     52       9.8563      0.00000
     53      10.1739      0.00000
     54      10.1739      0.00000
     55      10.2372      0.00000
     56      10.6001      0.00000
     57      10.6031      0.00000
     58      10.6031      0.00000
     59      10.6060      0.00000
     60      11.8229      0.00000
     61      11.8256      0.00000
     62      11.8256      0.00000
     63      11.8284      0.00000
     64      12.4540      0.00000
     65      12.4572      0.00000
     66      12.4572      0.00000
     67      12.4604      0.00000
     68      12.6052      0.00000
     69      12.6052      0.00000
     70      13.0813      0.00000
     71      13.0825      0.00000
     72      13.1111      0.00000

 k-point  10 :       0.1429    0.2857    0.0000
  band No.  band energies     occupation 
      1      -2.2690      2.00000
      2      -1.1988      2.00000
      3      -0.4907      2.00000
      4       0.2131      2.00000
      5       0.2131      2.00000
      6       0.5635      2.00000
      7       0.9124      2.00000
      8       1.2610      2.00000
      9       1.2610      2.00000
     10       1.6069      2.00000
     11       1.9525      2.00000
     12       1.9540      2.00000
     13       1.9553      2.00000
     14       2.9822      2.00000
     15       2.9822      2.00000
     16       3.3241      2.00000
     17       3.3254      2.00000
     18       3.3269      2.00000
     19       4.0040      2.00000
     20       4.0040      2.00000
     21       4.3053      2.00000
     22       4.3053      2.00000
     23       4.6510      2.00000
     24       4.6777      2.00000
[...]
      6       0.5635      2.00000
      7       0.5635      2.00000
      8       0.9129      2.00000
      9       1.6077      2.00000
     10       1.9537      2.00000
     11       1.9537      2.00000
     12       2.2983      2.00000
     13       2.9819      2.00000
     14       2.9819      2.00000
     15       3.3232      2.00000
     16       3.3232      2.00000
     17       3.9960      2.00000
     18       3.9960      2.00000
     19       4.3333      2.00000
     20       4.3333      2.00000
     21       4.6650      2.00000
     22       4.6650      2.00000
     23       4.9705      2.00000
     24       4.9705      2.00000
     25       5.6296      2.00000
     26       5.6296      2.00000
     27       5.7192      2.00000
     28       5.7192      2.00000
     29       6.3831      2.00000
     30       6.3831      2.00000
     31       6.4736      2.00000
     32       6.4736      2.00000
     33       6.5517      2.00000
     34       6.8592      2.00000
     35       6.8593      2.00000
     36       7.0141      2.00000
     37       7.1220      2.00000
     38       7.1221      2.00000
     39       7.4260      2.00000
     40       7.4260      2.00000
     41       7.5537      2.00000
     42       8.3035      2.00000
     43       8.3035      2.00000
     44       9.0489      2.00000
     45       9.0814      2.00000
     46      10.0533      0.00000
     47      10.0533      0.00000
     48      10.1569      0.00000
     49      10.2888      0.00000
     50      10.2889      0.00000
     51      10.4057      0.00000
     52      10.5807      0.00000
     53      10.8054      0.00000
     54      10.8054      0.00000
     55      11.0209      0.00000
     56      11.1647      0.00000
     57      11.1647      0.00000
     58      11.3743      0.00000
     59      11.3743      0.00000
     60      11.6395      0.00000
     61      11.6396      0.00000
     62      12.1083      0.00000
     63      12.1083      0.00000
     64      12.3396      0.00000
     65      12.3950      0.00000
     66      12.3950      0.00000
     67      12.4788      0.00000
     68      12.4788      0.00000
     69      13.7642      0.00000
     70      13.7674      0.00000
     71      13.7962      0.00000
     72      13.8003      0.00000

 k-point  39 :       0.2857    0.4286    0.4286
  band No.  band energies     occupation 
      1      -1.4020      2.00000
      2      -1.0468      2.00000
      3      -1.0468      2.00000
      4      -0.6926      2.00000
      5      -0.3395      2.00000
      6       0.0125      2.00000
      7       0.0125      2.00000
      8       0.3635      2.00000
      9       2.4451      2.00000
     10       2.7881      2.00000
     11       2.7881      2.00000
     12       3.1278      2.00000
     13       3.1282      2.00000
     14       3.1296      2.00000
     15       3.4687      2.00000
     16       3.4687      2.00000
     17       4.1403      2.00000
     18       4.1403      2.00000
     19       4.1434      2.00000
     20       4.1434      2.00000
     21       4.4726      2.00000
     22       4.4726      2.00000
     23       4.4766      2.00000
     24       4.4766      2.00000
     25       5.1363      2.00000
     26       5.1363      2.00000
     27       5.4393      2.00000
     28       5.4393      2.00000
     29       5.4573      2.00000
     30       5.7814      2.00000
     31       5.7814      2.00000
     32       6.0834      2.00000
     33       6.9432      2.00000
     34       6.9432      2.00000
     35       7.2477      2.00000
     36       7.2477      2.00000
     37       7.5788      2.00000
     38       7.8878      2.00000
     39       7.8878      2.00000
     40       8.2171      2.00000
     41       8.2171      2.00000
     42       8.5053      2.00000
     43       8.5053      2.00000
     44       8.5588      2.00000
     45       9.4176      2.00000
     46       9.5304      2.00000
     47       9.5304      2.00000
     48       9.7822      0.00000
     49       9.7822      0.00000
     50      10.1315      0.00000
     51      10.1315      0.00000
     52      10.4969      0.00000
     53      10.7066      0.00000
     54      10.7066      0.00000
     55      11.0844      0.00000
     56      11.0844      0.00000
     57      11.2033      0.00000
     58      11.2793      0.00000
     59      11.5600      0.00000
     60      11.5600      0.00000
     61      11.8840      0.00000
     62      12.1694      0.00000
     63      12.1694      0.00000
     64      12.5040      0.00000
     65      12.5040      0.00000
     66      12.7535      0.00000
     67      12.7535      0.00000
     68      13.1324      0.00000
     69      13.4041      0.00000
     70      13.4041      0.00000
     71      13.7738      0.00000
     72      13.7738      0.00000

 k-point  40 :       0.4286    0.4286    0.4286
  band No.  band energies     occupation 
      1      -1.1481      2.00000
      2      -0.7956      2.00000
      3      -0.7937      2.00000
      4      -0.7918      2.00000
      5      -0.4422      2.00000
      6      -0.4403      2.00000
      7      -0.4384      2.00000
      8      -0.0879      2.00000
      9       3.3695      2.00000
     10       3.3714      2.00000
     11       3.3733      2.00000
     12       3.7075      2.00000
     13       3.7091      2.00000
     14       3.7105      2.00000
     15       3.7105      2.00000
     16       3.7118      2.00000
     17       3.7135      2.00000
     18       4.0460      2.00000
     19       4.0466      2.00000
     20       4.0472      2.00000
     21       4.3797      2.00000
     22       4.3802      2.00000
     23       4.3808      2.00000
     24       4.7107      2.00000
     25       4.7123      2.00000
     26       4.7137      2.00000
     27       4.7137      2.00000
     28       4.7151      2.00000
     29       4.7167      2.00000
     30       5.0387      2.00000
     31       5.0406      2.00000
     32       5.0425      2.00000
     33       7.7996      2.00000
     34       7.8016      2.00000
     35       7.8036      2.00000
     36       8.1306      2.00000
     37       8.1313      2.00000
     38       8.1320      2.00000
     39       8.7580      2.00000
     40       8.7584      2.00000
     41       8.7601      2.00000
     42       8.7601      2.00000
     43       8.7617      2.00000
     44       8.7621      2.00000
     45       9.0976      2.00000
     46       9.0981      2.00000
     47       9.0997      2.00000
     48       9.0997      2.00000
     49       9.1013      2.00000
     50       9.1018      2.00000
     51       9.7097      1.93597
     52       9.7105      1.91610
     53       9.7114      1.89232
     54      10.0599      0.00000
     55      10.0620      0.00000
     56      10.0641      0.00000
     57      12.0872      0.00000
     58      12.7222      0.00000
     59      12.7227      0.00000
     60      12.7232      0.00000
     61      13.0263      0.00000
     62      13.0267      0.00000
     63      13.0283      0.00000
     64      13.0284      0.00000
     65      13.0299      0.00000
     66      13.0301      0.00000
     67      13.0494      0.00000
     68      13.0505      0.00000
     69      13.0516      0.00000
     70      13.3635      0.00000
     71      13.3646      0.00000
     72      13.3657      0.00000


--------------------------------------------------------------------------------------------------------


 soft charge-density along one line, spin component           1
         0         1         2         3         4         5         6         7         8         9
 total charge-density along one line
 
 pseudopotential strength for first ion, spin component:           1
  8.391  -0.009   0.000  -0.000   0.000   0.000  -0.000  -0.000
 -0.009   0.000   0.000  -0.000  -0.000  -0.000   0.000   0.000
  0.000   0.000   1.997   0.000   0.000  -0.032  -0.000  -0.000
 -0.000  -0.000   0.000   1.997  -0.000  -0.000  -0.032   0.000
  0.000  -0.000   0.000  -0.000   1.997  -0.000   0.000  -0.032
  0.000  -0.000  -0.032  -0.000  -0.000  -0.011  -0.000  -0.000
 -0.000   0.000  -0.000  -0.032   0.000  -0.000  -0.011   0.000
 -0.000   0.000  -0.000   0.000  -0.032  -0.000   0.000  -0.011
 total augmentation occupancy for first ion, spin component:           1
  1.292  -0.664  -0.000   0.000   0.004   0.000  -0.000  -0.002
 -0.664   0.682  -0.000   0.000  -0.004   0.000  -0.000   0.002
 -0.000  -0.000   0.865   0.003   0.005  -0.192  -0.001  -0.001
  0.000   0.000   0.003   0.867   0.000  -0.001  -0.188  -0.001
  0.004  -0.004   0.005   0.000   0.866  -0.001  -0.001  -0.190
  0.000   0.000  -0.192  -0.001  -0.001   0.049   0.000   0.000
 -0.000  -0.000  -0.001  -0.188  -0.001   0.000   0.048   0.000
 -0.002   0.002  -0.001  -0.001  -0.190   0.000   0.000   0.048


------------------------ aborting loop because EDIFF is reached ----------------------------------------




--------------------------------------------------------------------------------------------------------


    CHARGE:  VPU time    0.58: CPU time    0.58
    FORLOC:  VPU time    0.02: CPU time    0.02
    FORNL :  VPU time    5.64: CPU time    5.63
    STRESS:  VPU time   14.74: CPU time   14.73
    FORCOR:  VPU time    0.12: CPU time    0.12
    FORHAR:  VPU time    0.04: CPU time    0.04
    MIXING:  VPU time    0.00: CPU time    0.00


--------------------------------------------------------------------------------------------------------



  FREE ENERGIE OF THE ION-ELECTRON SYSTEM (eV)
  ---------------------------------------------------
  free  energy   TOTEN  =      -116.341470 eV

  energy  without entropy=     -116.341376  energy(sigma->0) =     -116.341423
 

  FORCE on cell =-STRESS in cart. coord.  units (eV/reduce length):
  Direction    X        Y        Z        XY       YZ       ZX
  --------------------------------------------------------------------------------------
  Alpha Z     -7.62     -7.62     -7.62
  Ewald     -826.27   -826.27   -826.27      0.00     -0.00     -0.00
  Hartree      1.54      1.54      1.54     -0.00     -0.00     -0.00
  E(xc)     -288.89   -288.89   -288.89     -0.00      0.00      0.00
  Local       30.92     30.92     30.92     -0.00      0.00      0.00
  n-local    636.01    634.97    637.06     -1.99     -0.63      0.73
  augment    -30.43    -30.43    -30.43      0.00      0.00      0.00
  Kinetic    533.14    526.20    540.08      5.72      0.06     -5.60
  -------------------------------------------------------------------------------------
  Total       48.40     48.40     48.40      0.00      0.00      0.00
  in kB      171.80    171.80    171.80      0.00      0.00      0.00
  external pressure =      171.80 kB  Pullay stress =        0.00 kB


 VOLUME and BASIS-vectors are now :
 -----------------------------------------------------------------------------
  energy-cutoff  :      500.00
  volume of cell :      451.34
      direct lattice vectors                 reciprocal lattice vectors
     7.670679810  0.000000000  0.000000000     0.130366542  0.000000000  0.000000000
     0.000000000  7.670679810  0.000000000     0.000000000  0.130366542  0.000000000
     0.000000000  0.000000000  7.670679810     0.000000000  0.000000000  0.130366542

  length of vectors
     7.670679810  7.670679810  7.670679810     0.130366542  0.130366542  0.130366542


 FORCES acting on ions
    electron-ion (+dipol)            ewald-force                    non-local-force                 convergence-correction
 -----------------------------------------------------------------------------------------------
   0.454E+00 0.501E-13 -.800E-08   -.373E+00 -.161E-14 -.345E-14   -.165E+00 0.000E+00 0.000E+00   -.138E-05 0.103E-13 -.630E-14
   -.964E-01 0.163E-12 -.743E-13   0.984E-01 -.394E-14 -.547E-14   0.174E-02 0.271E-19 0.000E+00   -.826E-06 0.113E-13 -.583E-14
   0.319E-01 -.726E-13 -.461E-13   -.312E-01 0.389E-15 0.190E-15   -.101E-02 0.102E-19 0.000E+00   -.924E-06 -.104E-13 -.464E-14
   -.252E-01 -.652E-13 0.359E-12   0.245E-01 -.339E-14 0.190E-15   0.112E-02 0.136E-19 -.339E-20   0.319E-07 -.111E-13 -.350E-14
   0.319E-01 -.336E-13 0.845E-15   -.312E-01 -.761E-14 -.552E-15   -.101E-02 0.339E-20 0.000E+00   -.915E-06 0.786E-14 0.602E-14
   -.252E-01 -.831E-14 0.959E-13   0.245E-01 -.761E-14 -.744E-14   0.112E-02 0.136E-19 -.136E-19   0.264E-07 0.839E-14 0.557E-14
   0.128E-01 0.370E-13 -.767E-14   -.129E-01 0.228E-14 -.932E-14   0.317E-03 -.169E-20 0.000E+00   -.259E-05 -.794E-14 0.438E-14
   -.139E-01 -.266E-12 0.121E-12   0.120E-01 -.483E-14 -.932E-14   0.669E-03 0.106E-21 0.000E+00   0.259E-05 -.811E-14 0.323E-14
   0.559E-01 -.275E-03 0.275E-03   -.588E-01 0.241E-03 -.241E-03   0.105E-02 0.730E-04 -.730E-04   -.122E-05 0.135E-06 -.135E-06
   -.355E-01 0.834E-04 -.834E-04   0.331E-01 -.722E-04 0.722E-04   0.210E-02 -.143E-04 0.143E-04   0.161E-06 0.673E-07 -.672E-07
   0.559E-01 0.275E-03 0.275E-03   -.588E-01 -.241E-03 -.241E-03   0.105E-02 -.730E-04 -.730E-04   -.122E-05 -.135E-06 -.135E-06
   -.355E-01 -.834E-04 -.834E-04   0.331E-01 0.722E-04 0.722E-04   0.210E-02 0.143E-04 0.143E-04   0.161E-06 -.673E-07 -.672E-07
   0.559E-01 -.275E-03 -.275E-03   -.588E-01 0.241E-03 0.241E-03   0.105E-02 0.730E-04 0.730E-04   -.122E-05 0.135E-06 0.135E-06
   -.355E-01 0.834E-04 0.834E-04   0.331E-01 -.722E-04 -.722E-04   0.210E-02 -.143E-04 -.143E-04   0.161E-06 0.673E-07 0.672E-07
   0.559E-01 0.275E-03 -.275E-03   -.588E-01 -.241E-03 0.241E-03   0.105E-02 -.730E-04 0.730E-04   -.122E-05 -.135E-06 0.135E-06
   -.355E-01 -.834E-04 0.834E-04   0.331E-01 0.722E-04 -.722E-04   0.210E-02 0.143E-04 -.143E-04   0.161E-06 -.673E-07 0.672E-07
   -.556E-01 -.380E-14 0.982E-01   0.476E-01 -.860E-14 -.901E-01   0.187E-01 0.000E+00 -.201E-01   0.814E-06 0.975E-14 -.715E-07
   -.554E-01 0.218E-12 -.992E-01   0.473E-01 -.405E-14 0.909E-01   0.190E-01 0.000E+00 0.206E-01   0.789E-06 0.107E-13 -.260E-06
   -.973E-03 -.128E-13 0.795E-02   0.159E-02 0.305E-14 -.746E-02   -.232E-03 0.000E+00 -.444E-03   0.180E-06 -.966E-14 0.103E-05
   -.822E-03 -.238E-13 -.794E-02   0.143E-02 0.500E-15 0.747E-02   -.224E-03 -.136E-19 0.438E-03   0.290E-06 -.106E-13 -.108E-05
   -.556E-01 -.501E-14 -.982E-01   0.476E-01 -.838E-14 0.901E-01   0.187E-01 -.136E-19 0.201E-01   0.814E-06 0.856E-14 0.715E-07
   -.554E-01 -.138E-12 0.992E-01   0.473E-01 -.583E-14 -.909E-01   0.190E-01 0.000E+00 -.206E-01   0.789E-06 0.894E-14 0.260E-06
   -.973E-03 -.164E-13 -.795E-02   0.159E-02 0.128E-14 0.746E-02   -.232E-03 0.203E-19 0.444E-03   0.180E-06 -.848E-14 -.103E-05
   -.822E-03 -.236E-12 0.794E-02   0.143E-02 -.305E-14 -.747E-02   -.224E-03 0.678E-20 -.438E-03   0.290E-06 -.881E-14 0.108E-05
   -.556E-01 -.982E-01 0.678E-14   0.476E-01 0.901E-01 0.152E-14   0.187E-01 0.201E-01 0.000E+00   0.814E-06 0.680E-07 -.508E-14
   -.554E-01 0.992E-01 0.213E-12   0.473E-01 -.909E-01 0.586E-14   0.190E-01 -.206E-01 0.000E+00   0.790E-06 0.264E-06 -.653E-14
   -.556E-01 0.982E-01 0.204E-14   0.476E-01 -.901E-01 0.841E-14   0.187E-01 -.201E-01 0.000E+00   0.814E-06 -.680E-07 -.389E-14
   -.554E-01 -.992E-01 -.882E-13   0.473E-01 0.909E-01 0.942E-14   0.190E-01 0.206E-01 0.000E+00   0.790E-06 -.264E-06 -.476E-14
   -.973E-03 -.795E-02 -.939E-14   0.159E-02 0.746E-02 0.576E-14   -.232E-03 0.444E-03 0.000E+00   0.180E-06 -.103E-05 0.482E-14
   -.822E-03 0.794E-02 -.141E-12   0.143E-02 -.747E-02 0.122E-14   -.224E-03 -.438E-03 0.339E-20   0.290E-06 0.108E-05 0.626E-14
   -.973E-03 0.795E-02 -.533E-14   0.159E-02 -.746E-02 0.266E-14   -.232E-03 -.444E-03 0.000E+00   0.180E-06 0.103E-05 0.363E-14
   -.822E-03 -.794E-02 0.157E-12   0.143E-02 0.747E-02 0.123E-14   -.224E-03 0.438E-03 0.000E+00   0.290E-06 -.108E-05 0.452E-14
 -----------------------------------------------------------------------------------------------
   0.234E-05 0.119E-12 -.800E-08   0.389E-14 0.512E-14 0.268E-14   0.295E-05 0.342E-17 0.147E-17   0.413E-07 -.126E-15 -.211E-15
 
 
 POSITION                                       TOTAL-FORCE (eV/Angst)
 -----------------------------------------------------------------------------------
      1.92767      1.91767      0.00000        -0.083762     -0.000000      0.000000
      5.75301      1.91767      0.00000         0.003774      0.000000     -0.000000
      1.91767      5.75301      0.00000        -0.000282     -0.000000      0.000000
      5.75301      5.75301      0.00000         0.000375      0.000000     -0.000000
      1.91767      1.91767      3.83534        -0.000282     -0.000000     -0.000000
      5.75301      1.91767      3.83534         0.000375      0.000000     -0.000000
      1.91767      5.75301      3.83534         0.000270      0.000000      0.000000
      5.75301      5.75301      3.83534        -0.001165      0.000000     -0.000000
      1.91767      0.00000      1.91767        -0.001797      0.000039     -0.000039
      5.75301      0.00000      1.91767        -0.000324     -0.000003      0.000003
      1.91767      3.83534      1.91767        -0.001797     -0.000039     -0.000039
      5.75301      3.83534      1.91767        -0.000324      0.000003      0.000003
      1.91767      0.00000      5.75301        -0.001797      0.000039      0.000039
      5.75301      0.00000      5.75301        -0.000324     -0.000003     -0.000003
      1.91767      3.83534      5.75301        -0.001797     -0.000039      0.000039
      5.75301      3.83534      5.75301        -0.000324      0.000003     -0.000003
      0.00000      1.91767      1.91767         0.010645      0.000000     -0.012049
      3.83534      1.91767      1.91767         0.010875      0.000000      0.012379
      0.00000      5.75301      1.91767         0.000386      0.000000      0.000046
      3.83534      5.75301      1.91767         0.000389     -0.000000     -0.000038
      0.00000      1.91767      5.75301         0.010645      0.000000      0.012049
      3.83534      1.91767      5.75301         0.010875      0.000000     -0.012379
      0.00000      5.75301      5.75301         0.000386      0.000000     -0.000046
      3.83534      5.75301      5.75301         0.000389      0.000000      0.000038
      0.00000      0.00000      0.00000         0.010645      0.012049      0.000000
      3.83534      0.00000      0.00000         0.010875     -0.012379      0.000000
      0.00000      3.83534      0.00000         0.010645     -0.012049      0.000000
      3.83534      3.83534      0.00000         0.010875      0.012379     -0.000000
      0.00000      0.00000      3.83534         0.000386     -0.000046      0.000000
      3.83534      0.00000      3.83534         0.000389      0.000038     -0.000000
      0.00000      3.83534      3.83534         0.000386      0.000046      0.000000
      3.83534      3.83534      3.83534         0.000389     -0.000038     -0.000000
 -----------------------------------------------------------------------------------
    total drift:                                0.000005      0.000000     -0.000000


--------------------------------------------------------------------------------------------------------



 mean value of Nose-termostat <S>:     1.000 mean value of <T> :     0.000
 mean temperature <T/S>/<1/S>  :     0.000

     LOOP+:  VPU time  258.90: CPU time  258.93
  
  
 General timing and accounting informations for this job:
 ========================================================
  
                  Total CPU time used (sec):      266.016
                            User time (sec):      244.858
                          System time (sec):       21.158
                         Elapsed time (sec):      266.062
  
                   Maximum memory used (kb):      825848.
                   Average memory used (kb):           0.
  
                          Minor page faults:       195923
                          Major page faults:            0
                 Voluntary context switches:          916
