32   
1    

1    
  0.0100000000000000   0.0000000000000000   0.0000000000000000
  -0.0221414200   -0.0000000000    0.0000000000
   0.0010084000   -0.0000000000   -0.0000000000
  -0.0002717200    0.0000000000    0.0000000000
  -0.0004521600    0.0000000000    0.0000000000
  -0.0002717200   -0.0000000000    0.0000000000
  -0.0004521600    0.0000000000    0.0000000000
   0.0000431800    0.0000000000    0.0000000000
  -0.0000804200    0.0000000000   -0.0000000000
   0.0026211300    0.0030800400   -0.0000000000
   0.0025067300   -0.0029336100    0.0000000000
   0.0026211300   -0.0030800400   -0.0000000000
   0.0025067300    0.0029336100    0.0000000000
   0.0002028100    0.0000490300   -0.0000000000
   0.0002018600   -0.0000483900   -0.0000000000
   0.0002028100   -0.0000490300   -0.0000000000
   0.0002018600    0.0000483900    0.0000000000
   0.0026211300   -0.0000000000    0.0030800400
   0.0025067300    0.0000000000   -0.0029336100
   0.0002028100   -0.0000000000    0.0000490300
   0.0002018600   -0.0000000000   -0.0000483900
   0.0026211300    0.0000000000   -0.0030800400
   0.0025067300    0.0000000000    0.0029336100
   0.0002028100   -0.0000000000   -0.0000490300
   0.0002018600   -0.0000000000    0.0000483900
  -0.0004434800   -0.0000024600   -0.0000024600
   0.0005654500    0.0000018600    0.0000018600
  -0.0004434800    0.0000024600   -0.0000024600
   0.0005654500   -0.0000018600    0.0000018600
  -0.0004434800   -0.0000024600    0.0000024600
   0.0005654500    0.0000018600   -0.0000018600
  -0.0004434800    0.0000024600    0.0000024600
   0.0005654500   -0.0000018600   -0.0000018600
