mesh: [    48,    48,    48 ]
nqpoint: 2600   
reciprocal_lattice:
- [   0.23096002,   0.00000000,   0.00000000 ] # a*
- [   0.00000000,   0.23096002,   0.00000000 ] # b*
- [   0.00000000,   0.00000000,   0.23096002 ] # c*
natom:   4      
lattice:
- [     4.329753772881099,     0.000000000000000,     0.000000000000000 ] # a
- [     0.000000000000000,     4.329753772881099,     0.000000000000000 ] # b
- [     0.000000000000000,     0.000000000000000,     4.329753772881099 ] # c
points:
- symbol: Ag # 1
  coordinates: [  0.000000000000000,  0.000000000000000,  0.000000000000000 ]
  mass: 107.868200
- symbol: Ag # 2
  coordinates: [  0.500000000000000,  0.500000000000000,  0.000000000000000 ]
  mass: 107.868200
- symbol: Ag # 3
  coordinates: [  0.500000000000000,  0.000000000000000,  0.500000000000000 ]
  mass: 107.868200
- symbol: Ag # 4
  coordinates: [  0.000000000000000,  0.500000000000000,  0.500000000000000 ]
  mass: 107.868200
phonon:
- q-position: [    0.0104167,    0.0104167,    0.0104167 ]
  weight: 8    
  band:
  - # 1
    frequency:     0.0606697110
  - # 2
    frequency:     0.0606697110
  - # 3
    frequency:     0.1121344479
  - # 4
    frequency:     2.2869776555
  - # 5
    frequency:     2.2869776555
  - # 6
    frequency:     2.2869776555
  - # 7
    frequency:     2.2882727121
  - # 8
    frequency:     2.2882727121
  - # 9
    frequency:     2.2882727121
  - # 10
    frequency:     3.1658358815
  - # 11
    frequency:     3.1658358815
  - # 12
    frequency:     3.1658358815

- q-position: [    0.0312500,    0.0104167,    0.0104167 ]
  weight: 24   
  band:
  - # 1
    frequency:     0.1186740479
  - # 2
    frequency:     0.1227193726
  - # 3
    frequency:     0.2093665750
  - # 4
    frequency:     2.2845710722
  - # 5
    frequency:     2.2847410071
  - # 6
    frequency:     2.2847410071
  - # 7
    frequency:     2.2858607318
  - # 8
    frequency:     2.2895304849
  - # 9
    frequency:     2.2895304849
  - # 10
    frequency:     3.1632594194
  - # 11
    frequency:     3.1632594194
  - # 12
    frequency:     3.1638492323

- q-position: [    0.0520833,    0.0104167,    0.0104167 ]
  weight: 24   
  band:
  - # 1
    frequency:     0.1910995829
  - # 2
    frequency:     0.1943382546
  - # 3
    frequency:     0.3231571053
  - # 4
    frequency:     2.2797600857
  - # 5
    frequency:     2.2808783754
  - # 6
    frequency:     2.2808783754
  - # 7
    frequency:     2.2810390187
  - # 8
    frequency:     2.2914750724
  - # 9
    frequency:     2.2914750724
  - # 10
    frequency:     3.1581235597
  - # 11
    frequency:     3.1581235597
  - # 12
    frequency:     3.1598627124

- q-position: [    0.0729167,    0.0104167,    0.0104167 ]
  weight: 24   
  band:
  - # 1
    frequency:     0.2652744307
  - # 2
    frequency:     0.2677698935
  - # 3
    frequency:     0.4409016377
  - # 4
    frequency:     2.2725490583
  - # 5
    frequency:     2.2738120676
  - # 6
    frequency:     2.2752736093
  - # 7
    frequency:     2.2752736093
  - # 8
    frequency:     2.2943014067
  - # 9
    frequency:     2.2943014067
  - # 10
    frequency:     3.1504623279
  - # 11
    frequency:     3.1504623279
  - # 12
    frequency:     3.1538501032

- q-position: [    0.0937500,    0.0104167,    0.0104167 ]
  weight: 24   
  band:
  - # 1
    frequency:     0.3396457297
  - # 2
    frequency:     0.3416251091
  - # 3
    frequency:     0.5595842920
  - # 4
    frequency:     2.2629445369
  - # 5
    frequency:     2.2641866184
  - # 6
    frequency:     2.2679648480
  - # 7
    frequency:     2.2679648480
  - # 8
    frequency:     2.2980879423
  - # 9
    frequency:     2.2980879423
  - # 10
    frequency:     3.1403265040
  - # 11
    frequency:     3.1403265040
  - # 12
    frequency:     3.1457726350

- q-position: [    0.1145833,    0.0104167,    0.0104167 ]
  weight: 24   
  band:
  - # 1
    frequency:     0.4138223490
  - # 2
    frequency:     0.4154351394
  - # 3
    frequency:     0.6780434844
  - # 4
    frequency:     2.2509552586
  - # 5
    frequency:     2.2521716547
  - # 6
    frequency:     2.2590476999
  - # 7
    frequency:     2.2590476999
  - # 8
    frequency:     2.3028915880
  - # 9
    frequency:     2.3028915880
  - # 10
    frequency:     3.1277833112
  - # 11
    frequency:     3.1277833112
  - # 12
    frequency:     3.1355796420

- q-position: [    0.1354167,    0.0104167,    0.0104167 ]
  weight: 24   
  band:
  - # 1
    frequency:     0.4876243126
  - # 2
    frequency:     0.4889642772
  - # 3
    frequency:     0.7956597054
  - # 4
    frequency:     2.2365921560
  - # 5
    frequency:     2.2377784011
  - # 6
    frequency:     2.2486516283
  - # 7
    frequency:     2.2486516283
  - # 8
    frequency:     2.3087688141
  - # 9
    frequency:     2.3087688141
  - # 10
    frequency:     3.1129159969
  - # 11
    frequency:     3.1129159969
  - # 12
    frequency:     3.1232094157

- q-position: [    0.1562500,    0.0104167,    0.0104167 ]
  weight: 24   
  band:
  - # 1
    frequency:     0.5609298650
  - # 2
    frequency:     0.5620577967
  - # 3
    frequency:     0.9120179811
  - # 4
    frequency:     2.2198683649
  - # 5
    frequency:     2.2210203218
  - # 6
    frequency:     2.2369330964
  - # 7
    frequency:     2.2369330964
  - # 8
    frequency:     2.3157793907
  - # 9
    frequency:     2.3157793907
  - # 10
    frequency:     3.0958233059
  - # 11
    frequency:     3.0958233059
  - # 12
    frequency:     3.1085902366

- q-position: [    0.1770833,    0.0104167,    0.0104167 ]
  weight: 24   
  band:
  - # 1
    frequency:     0.6336385109
  - # 2
    frequency:     0.6345954470
  - # 3
    frequency:     1.0267969841
  - # 4
    frequency:     2.2007992328
  - # 5
    frequency:     2.2019131188
  - # 6
    frequency:     2.2240723578
  - # 7
    frequency:     2.2240723578
  - # 8
    frequency:     2.3239858883
  - # 9
    frequency:     2.3239858883
  - # 10
    frequency:     3.0766188408
  - # 11
    frequency:     3.0766188408
  - # 12
    frequency:     3.0916415655

- q-position: [    0.1979167,    0.0104167,    0.0104167 ]
  weight: 24   
  band:
  - # 1
    frequency:     0.7056593761
  - # 2
    frequency:     0.7064740229
  - # 3
    frequency:     1.1397260827
  - # 4
    frequency:     2.1794023275
  - # 5
    frequency:     2.1804747309
  - # 6
    frequency:     2.2102709895
  - # 7
    frequency:     2.2102709895
  - # 8
    frequency:     2.3334518617
  - # 9
    frequency:     2.3334518617
  - # 10
    frequency:     3.0554303086
  - # 11
    frequency:     3.0554303086
  - # 12
    frequency:     3.0722753698

- q-position: [    0.2187500,    0.0104167,    0.0104167 ]
  weight: 24   
  band:
  - # 1
    frequency:     0.7769068292
  - # 2
    frequency:     0.7775998641
  - # 3
    frequency:     1.2505667207
  - # 4
    frequency:     2.1556974473
  - # 5
    frequency:     2.1567253339
  - # 6
    frequency:     2.1957493926
  - # 7
    frequency:     2.1957493926
  - # 8
    frequency:     2.3442395242
  - # 9
    frequency:     2.3442395242
  - # 10
    frequency:     3.0323986476
  - # 11
    frequency:     3.0323986476
  - # 12
    frequency:     3.0503975617

- q-position: [    0.2395833,    0.0104167,    0.0104167 ]
  weight: 24   
  band:
  - # 1
    frequency:     0.8472986244
  - # 2
    frequency:     0.8478852934
  - # 3
    frequency:     1.3591037257
  - # 4
    frequency:     2.1297066308
  - # 5
    frequency:     2.1306873416
  - # 6
    frequency:     2.1807439999
  - # 7
    frequency:     2.1807439999
  - # 8
    frequency:     2.3564072067
  - # 9
    frequency:     2.3564072067
  - # 10
    frequency:     3.0076770337
  - # 11
    frequency:     3.0076770337
  - # 12
    frequency:     3.0259095213

- q-position: [    0.2604167,    0.0104167,    0.0104167 ]
  weight: 24   
  band:
  - # 1
    frequency:     0.9167550520
  - # 2
    frequency:     0.9172468025
  - # 3
    frequency:     1.4651410835
  - # 4
    frequency:     2.1014541670
  - # 5
    frequency:     2.1023854075
  - # 6
    frequency:     2.1655040842
  - # 7
    frequency:     2.1655040842
  - # 8
    frequency:     2.3700067591
  - # 9
    frequency:     2.3700067591
  - # 10
    frequency:     2.9814297618
  - # 11
    frequency:     2.9814297618
  - # 12
    frequency:     2.9987096798

- q-position: [    0.2812500,    0.0104167,    0.0104167 ]
  weight: 24   
  band:
  - # 1
    frequency:     0.9851985372
  - # 2
    frequency:     0.9856040821
  - # 3
    frequency:     1.5684998715
  - # 4
    frequency:     2.0709666046
  - # 5
    frequency:     2.0718464278
  - # 6
    frequency:     2.1502881169
  - # 7
    frequency:     2.1502881169
  - # 8
    frequency:     2.3850810043
  - # 9
    frequency:     2.3850810043
  - # 10
    frequency:     2.9538309998
  - # 11
    frequency:     2.9538309998
  - # 12
    frequency:     2.9686951377

- q-position: [    0.3020833,    0.0104167,    0.0104167 ]
  weight: 24   
  band:
  - # 1
    frequency:     1.0525534538
  - # 2
    frequency:     1.0528794884
  - # 3
    frequency:     1.6690172879
  - # 4
    frequency:     2.0382727614
  - # 5
    frequency:     2.0390995440
  - # 6
    frequency:     2.1353596630
  - # 7
    frequency:     2.1353596630
  - # 8
    frequency:     2.4016613385
  - # 9
    frequency:     2.4016613385
  - # 10
    frequency:     2.9250634136
  - # 11
    frequency:     2.9250634136
  - # 12
    frequency:     2.9357632927

- q-position: [    0.3229167,    0.0104167,    0.0104167 ]
  weight: 24   
  band:
  - # 1
    frequency:     1.1187460483
  - # 2
    frequency:     1.1189977480
  - # 3
    frequency:     1.7665462498
  - # 4
    frequency:     2.0034037317
  - # 5
    frequency:     2.0041761466
  - # 6
    frequency:     2.1209828262
  - # 7
    frequency:     2.1209828262
  - # 8
    frequency:     2.4197655599
  - # 9
    frequency:     2.4197655599
  - # 10
    frequency:     2.8953166649
  - # 11
    frequency:     2.8953166649
  - # 12
    frequency:     2.8998134559

- q-position: [    0.3437500,    0.0104167,    0.0104167 ]
  weight: 24   
  band:
  - # 1
    frequency:     1.1837044221
  - # 2
    frequency:     1.1838857972
  - # 3
    frequency:     1.8609552829
  - # 4
    frequency:     1.9663928935
  - # 5
    frequency:     1.9671098778
  - # 6
    frequency:     2.1074172929
  - # 7
    frequency:     2.1074172929
  - # 8
    frequency:     2.4393959957
  - # 9
    frequency:     2.4393959957
  - # 10
    frequency:     2.8607484344
  - # 11
    frequency:     2.8647857828
  - # 12
    frequency:     2.8647857828

- q-position: [    0.3645833,    0.0104167,    0.0104167 ]
  weight: 24   
  band:
  - # 1
    frequency:     1.2473585452
  - # 2
    frequency:     1.2474726998
  - # 3
    frequency:     1.9272759126
  - # 4
    frequency:     1.9279366336
  - # 5
    frequency:     1.9521285460
  - # 6
    frequency:     2.0949130603
  - # 7
    frequency:     2.0949130603
  - # 8
    frequency:     2.4605379857
  - # 9
    frequency:     2.4605379857
  - # 10
    frequency:     2.8184760622
  - # 11
    frequency:     2.8336694166
  - # 12
    frequency:     2.8336694166

- q-position: [    0.3854167,    0.0104167,    0.0104167 ]
  weight: 24   
  band:
  - # 1
    frequency:     1.3096402862
  - # 2
    frequency:     1.3096896131
  - # 3
    frequency:     1.8860907462
  - # 4
    frequency:     1.8866945648
  - # 5
    frequency:     2.0399659018
  - # 6
    frequency:     2.0837049716
  - # 7
    frequency:     2.0837049716
  - # 8
    frequency:     2.4831587611
  - # 9
    frequency:     2.4831587611
  - # 10
    frequency:     2.7729106627
  - # 11
    frequency:     2.8021679817
  - # 12
    frequency:     2.8021679817

- q-position: [    0.4062500,    0.0104167,    0.0104167 ]
  weight: 24   
  band:
  - # 1
    frequency:     1.3704697803
  - # 2
    frequency:     1.3704834509
  - # 3
    frequency:     1.8428776426
  - # 4
    frequency:     1.8434240757
  - # 5
    frequency:     2.0740072237
  - # 6
    frequency:     2.0740072237
  - # 7
    frequency:     2.1243829760
  - # 8
    frequency:     2.5072067382
  - # 9
    frequency:     2.5072067382
  - # 10
    frequency:     2.7239744279
  - # 11
    frequency:     2.7704817218
  - # 12
    frequency:     2.7704817218

- q-position: [    0.4270833,    0.0104167,    0.0104167 ]
  weight: 24   
  band:
  - # 1
    frequency:     1.4297485407
  - # 2
    frequency:     1.4298238239
  - # 3
    frequency:     1.7976791396
  - # 4
    frequency:     1.7981678213
  - # 5
    frequency:     2.0660080443
  - # 6
    frequency:     2.0660080443
  - # 7
    frequency:     2.2053111691
  - # 8
    frequency:     2.5326112044
  - # 9
    frequency:     2.5326112044
  - # 10
    frequency:     2.6715987042
  - # 11
    frequency:     2.7388087346
  - # 12
    frequency:     2.7388087346

- q-position: [    0.4479167,    0.0104167,    0.0104167 ]
  weight: 24   
  band:
  - # 1
    frequency:     1.4874633484
  - # 2
    frequency:     1.4875992101
  - # 3
    frequency:     1.7505400590
  - # 4
    frequency:     1.7509707007
  - # 5
    frequency:     2.0598647600
  - # 6
    frequency:     2.0598647600
  - # 7
    frequency:     2.2826975978
  - # 8
    frequency:     2.5592822661
  - # 9
    frequency:     2.5592822661
  - # 10
    frequency:     2.6157251731
  - # 11
    frequency:     2.7073431111
  - # 12
    frequency:     2.7073431111

- q-position: [    0.4687500,    0.0104167,    0.0104167 ]
  weight: 24   
  band:
  - # 1
    frequency:     1.5435537958
  - # 2
    frequency:     1.5437494749
  - # 3
    frequency:     1.7015074987
  - # 4
    frequency:     1.7018798484
  - # 5
    frequency:     2.0556994894
  - # 6
    frequency:     2.0556994894
  - # 7
    frequency:     2.3565049467
  - # 8
    frequency:     2.5563069210
  - # 9
    frequency:     2.5871102438
  - # 10
    frequency:     2.5871102438
  - # 11
    frequency:     2.6762740120
  - # 12
    frequency:     2.6762740120

- q-position: [    0.4895833,    0.0104167,    0.0104167 ]
  weight: 24   
  band:
  - # 1
    frequency:     1.5979616386
  - # 2
    frequency:     1.5982165808
  - # 3
    frequency:     1.6506308211
  - # 4
    frequency:     1.6509446210
  - # 5
    frequency:     2.0535956796
  - # 6
    frequency:     2.0535956796
  - # 7
    frequency:     2.4267112216
  - # 8
    frequency:     2.4933093922
  - # 9
    frequency:     2.6159510619
  - # 10
    frequency:     2.6159510619
  - # 11
    frequency:     2.6457991333
  - # 12
    frequency:     2.6457991333

- q-position: [    0.0312500,    0.0312500,    0.0104167 ]
  weight: 24   
  band:
  - # 1
    frequency:     0.1471175864
  - # 2
    frequency:     0.1616770764
  - # 3
    frequency:     0.2794415306
  - # 4
    frequency:     2.2808363923
  - # 5
    frequency:     2.2823350553
  - # 6
    frequency:     2.2823350553
  - # 7
    frequency:     2.2871151932
  - # 8
    frequency:     2.2871151932
  - # 9
    frequency:     2.2924635337
  - # 10
    frequency:     3.1606852053
  - # 11
    frequency:     3.1612986998
  - # 12
    frequency:     3.1612986998

- q-position: [    0.0520833,    0.0312500,    0.0104167 ]
  weight: 48   
  band:
  - # 1
    frequency:     0.2037632524
  - # 2
    frequency:     0.2208545197
  - # 3
    frequency:     0.3755196425
  - # 4
    frequency:     2.2756352890
  - # 5
    frequency:     2.2775253825
  - # 6
    frequency:     2.2784655337
  - # 7
    frequency:     2.2822870475
  - # 8
    frequency:     2.2890611676
  - # 9
    frequency:     2.2957609743
  - # 10
    frequency:     3.1555538166
  - # 11
    frequency:     3.1562145586
  - # 12
    frequency:     3.1573638098

- q-position: [    0.0729167,    0.0312500,    0.0104167 ]
  weight: 48   
  band:
  - # 1
    frequency:     0.2716991073
  - # 2
    frequency:     0.2874476385
  - # 3
    frequency:     0.4818369870
  - # 4
    frequency:     2.2691382418
  - # 5
    frequency:     2.2703164506
  - # 6
    frequency:     2.2728477362
  - # 7
    frequency:     2.2750509150
  - # 8
    frequency:     2.2918919233
  - # 9
    frequency:     2.2995005748
  - # 10
    frequency:     3.1478992297
  - # 11
    frequency:     3.1486305534
  - # 12
    frequency:     3.1514280822

- q-position: [    0.0937500,    0.0312500,    0.0104167 ]
  weight: 48   
  band:
  - # 1
    frequency:     0.3432896858
  - # 2
    frequency:     0.3571086831
  - # 3
    frequency:     0.5927751767
  - # 4
    frequency:     2.2607149526
  - # 5
    frequency:     2.2612620767
  - # 6
    frequency:     2.2654140767
  - # 7
    frequency:     2.2655202763
  - # 8
    frequency:     2.2956850187
  - # 9
    frequency:     2.3038814134
  - # 10
    frequency:     3.1377721514
  - # 11
    frequency:     3.1385970448
  - # 12
    frequency:     3.1434520986

- q-position: [    0.1145833,    0.0312500,    0.0104167 ]
  weight: 48   
  band:
  - # 1
    frequency:     0.4160338474
  - # 2
    frequency:     0.4281069759
  - # 3
    frequency:     0.7057173773
  - # 4
    frequency:     2.2487298123
  - # 5
    frequency:     2.2519970848
  - # 6
    frequency:     2.2533862046
  - # 7
    frequency:     2.2565786574
  - # 8
    frequency:     2.3004969142
  - # 9
    frequency:     2.3090648238
  - # 10
    frequency:     3.1252397083
  - # 11
    frequency:     3.1261806990
  - # 12
    frequency:     3.1333843715

- q-position: [    0.1354167,    0.0312500,    0.0104167 ]
  weight: 48   
  band:
  - # 1
    frequency:     0.4889983575
  - # 2
    frequency:     0.4996233058
  - # 3
    frequency:     0.8192284242
  - # 4
    frequency:     2.2343721843
  - # 5
    frequency:     2.2389793358
  - # 6
    frequency:     2.2414016067
  - # 7
    frequency:     2.2461519766
  - # 8
    frequency:     2.3063837697
  - # 9
    frequency:     2.3151773229
  - # 10
    frequency:     3.1103850291
  - # 11
    frequency:     3.1114640717
  - # 12
    frequency:     3.1211622313

- q-position: [    0.1562500,    0.0312500,    0.0104167 ]
  weight: 48   
  band:
  - # 1
    frequency:     0.5617594575
  - # 2
    frequency:     0.5712038921
  - # 3
    frequency:     0.9324183214
  - # 4
    frequency:     2.2176554542
  - # 5
    frequency:     2.2222078440
  - # 6
    frequency:     2.2295866004
  - # 7
    frequency:     2.2343961876
  - # 8
    frequency:     2.3134050757
  - # 9
    frequency:     2.3223229528
  - # 10
    frequency:     3.0933067191
  - # 11
    frequency:     3.0945450837
  - # 12
    frequency:     3.1067128964

- q-position: [    0.1770833,    0.0312500,    0.0104167 ]
  weight: 48   
  band:
  - # 1
    frequency:     0.6340814761
  - # 2
    frequency:     0.6425614079
  - # 3
    frequency:     1.0446763674
  - # 4
    frequency:     2.1985952373
  - # 5
    frequency:     2.2030884109
  - # 6
    frequency:     2.2167032887
  - # 7
    frequency:     2.2214909391
  - # 8
    frequency:     2.3216231198
  - # 9
    frequency:     2.3305919512
  - # 10
    frequency:     3.0741182228
  - # 11
    frequency:     3.0755363848
  - # 12
    frequency:     3.0899547049

- q-position: [    0.1979167,    0.0312500,    0.0104167 ]
  weight: 48   
  band:
  - # 1
    frequency:     0.7058071156
  - # 2
    frequency:     0.7134926653
  - # 3
    frequency:     1.1555478663
  - # 4
    frequency:     2.1772093786
  - # 5
    frequency:     2.1816400006
  - # 6
    frequency:     2.2029343829
  - # 7
    frequency:     2.2076371368
  - # 8
    frequency:     2.3311011598
  - # 9
    frequency:     2.3400652759
  - # 10
    frequency:     3.0529470719
  - # 11
    frequency:     3.0545646044
  - # 12
    frequency:     3.0707984827

- q-position: [    0.2187500,    0.0312500,    0.0104167 ]
  weight: 48   
  band:
  - # 1
    frequency:     0.7768154668
  - # 2
    frequency:     0.7838408009
  - # 3
    frequency:     1.2646725396
  - # 4
    frequency:     2.1535179516
  - # 5
    frequency:     2.1578838366
  - # 6
    frequency:     2.1884876511
  - # 7
    frequency:     2.1930544657
  - # 8
    frequency:     2.3419010966
  - # 9
    frequency:     2.3508162410
  - # 10
    frequency:     3.0299340164
  - # 11
    frequency:     3.0317694829
  - # 12
    frequency:     3.0491490216

- q-position: [    0.2395833,    0.0312500,    0.0104167 ]
  weight: 48   
  band:
  - # 1
    frequency:     0.8470042908
  - # 2
    frequency:     0.8534763804
  - # 3
    frequency:     1.3717519197
  - # 4
    frequency:     2.1275432576
  - # 5
    frequency:     2.1318433855
  - # 6
    frequency:     2.1735907418
  - # 7
    frequency:     2.1779786218
  - # 8
    frequency:     2.3540809338
  - # 9
    frequency:     2.3629103909
  - # 10
    frequency:     3.0052320339
  - # 11
    frequency:     3.0073028842
  - # 12
    frequency:     3.0249066410

- q-position: [    0.2604167,    0.0312500,    0.0104167 ]
  weight: 48   
  band:
  - # 1
    frequency:     0.9162819122
  - # 2
    frequency:     0.9222872945
  - # 3
    frequency:     1.4765312672
  - # 4
    frequency:     2.0993098245
  - # 5
    frequency:     2.1035443448
  - # 6
    frequency:     2.1584865452
  - # 7
    frequency:     2.1626581456
  - # 8
    frequency:     2.3676921823
  - # 9
    frequency:     2.3764043762
  - # 10
    frequency:     2.9790052167
  - # 11
    frequency:     2.9813276835
  - # 12
    frequency:     2.9979688060

- q-position: [    0.2812500,    0.0312500,    0.0104167 ]
  weight: 48   
  band:
  - # 1
    frequency:     0.9845632586
  - # 2
    frequency:     0.9901730517
  - # 3
    frequency:     1.5787891665
  - # 4
    frequency:     2.0688444063
  - # 5
    frequency:     2.0730146379
  - # 6
    frequency:     2.1434286645
  - # 7
    frequency:     2.1473508096
  - # 8
    frequency:     2.3827773153
  - # 9
    frequency:     2.3913443201
  - # 10
    frequency:     2.9514275327
  - # 11
    frequency:     2.9540165308
  - # 12
    frequency:     2.9682317766

- q-position: [    0.3020833,    0.0312500,    0.0104167 ]
  weight: 48   
  band:
  - # 1
    frequency:     1.0517678229
  - # 2
    frequency:     1.0570414060
  - # 3
    frequency:     1.6783313626
  - # 4
    frequency:     2.0361759827
  - # 5
    frequency:     2.0402844136
  - # 6
    frequency:     2.1286767558
  - # 7
    frequency:     2.1323195443
  - # 8
    frequency:     2.3993673685
  - # 9
    frequency:     2.4077639923
  - # 10
    frequency:     2.9226814617
  - # 11
    frequency:     2.9255504884
  - # 12
    frequency:     2.9355922636

- q-position: [    0.3229167,    0.0312500,    0.0104167 ]
  weight: 48   
  band:
  - # 1
    frequency:     1.1178185752
  - # 2
    frequency:     1.1228062907
  - # 3
    frequency:     1.7749870239
  - # 4
    frequency:     2.0013357589
  - # 5
    frequency:     2.0053860509
  - # 6
    frequency:     2.1144916226
  - # 7
    frequency:     2.1178279174
  - # 8
    frequency:     2.4174797638
  - # 9
    frequency:     2.4256829991
  - # 10
    frequency:     2.8929565083
  - # 11
    frequency:     2.8961175463
  - # 12
    frequency:     2.8999490690

- q-position: [    0.3437500,    0.0312500,    0.0104167 ]
  weight: 48   
  band:
  - # 1
    frequency:     1.1826413669
  - # 2
    frequency:     1.1873865123
  - # 3
    frequency:     1.8686064296
  - # 4
    frequency:     1.9643571664
  - # 5
    frequency:     1.9683541668
  - # 6
    frequency:     2.1011300355
  - # 7
    frequency:     2.1041352126
  - # 8
    frequency:     2.4371164218
  - # 9
    frequency:     2.4451051330
  - # 10
    frequency:     2.8612046902
  - # 11
    frequency:     2.8624476018
  - # 12
    frequency:     2.8659110221

- q-position: [    0.3645833,    0.0312500,    0.0104167 ]
  weight: 48   
  band:
  - # 1
    frequency:     1.2461646037
  - # 2
    frequency:     1.2507049051
  - # 3
    frequency:     1.9252758642
  - # 4
    frequency:     1.9292256277
  - # 5
    frequency:     1.9590595052
  - # 6
    frequency:     2.0888393175
  - # 7
    frequency:     2.0914911915
  - # 8
    frequency:     2.4582622118
  - # 9
    frequency:     2.4660169706
  - # 10
    frequency:     2.8192668709
  - # 11
    frequency:     2.8313533978
  - # 12
    frequency:     2.8351278620

- q-position: [    0.3854167,    0.0312500,    0.0104167 ]
  weight: 48   
  band:
  - # 1
    frequency:     1.3083190664
  - # 2
    frequency:     1.3126877726
  - # 3
    frequency:     1.8841297410
  - # 4
    frequency:     1.8880395610
  - # 5
    frequency:     2.0462348621
  - # 6
    frequency:     2.0778517925
  - # 7
    frequency:     2.0801306619
  - # 8
    frequency:     2.4808837552
  - # 9
    frequency:     2.4883867606
  - # 10
    frequency:     2.7740500825
  - # 11
    frequency:     2.7998745259
  - # 12
    frequency:     2.8039668780

- q-position: [    0.4062500,    0.0312500,    0.0104167 ]
  weight: 48   
  band:
  - # 1
    frequency:     1.3690378189
  - # 2
    frequency:     1.3732645118
  - # 3
    frequency:     1.8409589174
  - # 4
    frequency:     1.8448373679
  - # 5
    frequency:     2.0683792432
  - # 6
    frequency:     2.0702680123
  - # 7
    frequency:     2.1300391306
  - # 8
    frequency:     2.5049285360
  - # 9
    frequency:     2.5121635534
  - # 10
    frequency:     2.7254769238
  - # 11
    frequency:     2.7682118844
  - # 12
    frequency:     2.7726270087

- q-position: [    0.4270833,    0.0312500,    0.0104167 ]
  weight: 48   
  band:
  - # 1
    frequency:     1.4282561638
  - # 2
    frequency:     1.4323673591
  - # 3
    frequency:     1.7958057491
  - # 4
    frequency:     1.7996627358
  - # 5
    frequency:     2.0606075673
  - # 6
    frequency:     2.0620919105
  - # 7
    frequency:     2.2103964516
  - # 8
    frequency:     2.5303240948
  - # 9
    frequency:     2.5372762925
  - # 10
    frequency:     2.6734794285
  - # 11
    frequency:     2.7365653042
  - # 12
    frequency:     2.7413058544

- q-position: [    0.4479167,    0.0312500,    0.0104167 ]
  weight: 48   
  band:
  - # 1
    frequency:     1.4859116266
  - # 2
    frequency:     1.4899312164
  - # 3
    frequency:     1.7487148294
  - # 4
    frequency:     1.7525616498
  - # 5
    frequency:     2.0546918461
  - # 6
    frequency:     2.0557603851
  - # 7
    frequency:     2.2872480376
  - # 8
    frequency:     2.5569763467
  - # 9
    frequency:     2.5636315589
  - # 10
    frequency:     2.6180002724
  - # 11
    frequency:     2.7051339138
  - # 12
    frequency:     2.7101994652

- q-position: [    0.4687500,    0.0312500,    0.0104167 ]
  weight: 48   
  band:
  - # 1
    frequency:     1.5419439532
  - # 2
    frequency:     1.5458935325
  - # 3
    frequency:     1.6997329926
  - # 4
    frequency:     1.7035824038
  - # 5
    frequency:     2.0507520509
  - # 6
    frequency:     2.0513965211
  - # 7
    frequency:     2.3605517467
  - # 8
    frequency:     2.5589938762
  - # 9
    frequency:     2.5847613103
  - # 10
    frequency:     2.5911012204
  - # 11
    frequency:     2.6741269696
  - # 12
    frequency:     2.6795091013

- q-position: [    0.4895833,    0.0312500,    0.0104167 ]
  weight: 48   
  band:
  - # 1
    frequency:     1.5962951150
  - # 2
    frequency:     1.6001942222
  - # 3
    frequency:     1.6489093148
  - # 4
    frequency:     1.6527756121
  - # 5
    frequency:     2.0488696055
  - # 6
    frequency:     2.0490849897
  - # 7
    frequency:     2.4302816261
  - # 8
    frequency:     2.4964273993
  - # 9
    frequency:     2.6134300598
  - # 10
    frequency:     2.6193231199
  - # 11
    frequency:     2.6439620208
  - # 12
    frequency:     2.6495351561

- q-position: [    0.0520833,    0.0520833,    0.0104167 ]
  weight: 24   
  band:
  - # 1
    frequency:     0.2393967217
  - # 2
    frequency:     0.2670333302
  - # 3
    frequency:     0.4555637758
  - # 4
    frequency:     2.2686906569
  - # 5
    frequency:     2.2736423663
  - # 6
    frequency:     2.2736423663
  - # 7
    frequency:     2.2842360049
  - # 8
    frequency:     2.2842360049
  - # 9
    frequency:     2.3008302362
  - # 10
    frequency:     3.1504313206
  - # 11
    frequency:     3.1523826359
  - # 12
    frequency:     3.1523826359

- q-position: [    0.0729167,    0.0520833,    0.0104167 ]
  weight: 48   
  band:
  - # 1
    frequency:     0.2931457458
  - # 2
    frequency:     0.3240374771
  - # 3
    frequency:     0.5492107626
  - # 4
    frequency:     2.2606015957
  - # 5
    frequency:     2.2664138977
  - # 6
    frequency:     2.2679990801
  - # 7
    frequency:     2.2770048582
  - # 8
    frequency:     2.2870758020
  - # 9
    frequency:     2.3062031240
  - # 10
    frequency:     3.1427899499
  - # 11
    frequency:     3.1449523526
  - # 12
    frequency:     3.1466002067

- q-position: [    0.0937500,    0.0520833,    0.0104167 ]
  weight: 48   
  band:
  - # 1
    frequency:     0.3564830618
  - # 2
    frequency:     0.3869055787
  - # 3
    frequency:     0.6501933911
  - # 4
    frequency:     2.2514049630
  - # 5
    frequency:     2.2567876462
  - # 6
    frequency:     2.2606351004
  - # 7
    frequency:     2.2673755901
  - # 8
    frequency:     2.2908822282
  - # 9
    frequency:     2.3119573172
  - # 10
    frequency:     3.1326802651
  - # 11
    frequency:     3.1351224481
  - # 12
    frequency:     3.1388265248

- q-position: [    0.1145833,    0.0520833,    0.0104167 ]
  weight: 48   
  band:
  - # 1
    frequency:     0.4243913305
  - # 2
    frequency:     0.4529821634
  - # 3
    frequency:     0.7552455663
  - # 4
    frequency:     2.2411018179
  - # 5
    frequency:     2.2447736016
  - # 6
    frequency:     2.2516457557
  - # 7
    frequency:     2.2553586007
  - # 8
    frequency:     2.2957108626
  - # 9
    frequency:     2.3182416088
  - # 10
    frequency:     3.1201692005
  - # 11
    frequency:     3.1229584313
  - # 12
    frequency:     3.1290084233

- q-position: [    0.1354167,    0.0520833,    0.0104167 ]
  weight: 48   
  band:
  - # 1
    frequency:     0.4943833631