 running on    4 nodes
 distr:  one band on    1 nodes,    4 groups
 vasp.4.6.28 25Jul05 complex 
 POSCAR found :  1 types and   36 ions

 ----------------------------------------------------------------------------- 
|                                                                             |
|  ADVICE TO THIS USER RUNNING 'VASP/VAMP'   (HEAR YOUR MASTER'S VOICE ...):  |
|                                                                             |
|      You have a (more or less) 'large supercell' and for larger cells       |
|      it might be more efficient to use real space projection operators      |
|      So try LREAL= Auto  in the INCAR   file.                               |
|      Mind: If you want to do an extremely accurate calculations keep the    |
|      reciprocal projection scheme          (i.e. LREAL=.FALSE.)             |
|                                                                             |
 ----------------------------------------------------------------------------- 

 LDA part: xc-table for Pade appr. of Perdew
 generate k-points for:   7   7   5
 POSCAR, INCAR and KPOINTS ok, starting setup
 WARNING: wrap around errors must be expected
 FFT: planning ...           1
 reading WAVECAR
 WARNING: random wavefunctions but no delay for mixing, default for NELMDL
 entering main loop
       N       E                     dE             d eps       ncg     rms          rms(c)
DAV:   1     0.497841164107E+04    0.49784E+04   -0.17206E+05 53864   0.180E+03
DAV:   2     0.894408937403E+02   -0.48890E+04   -0.48138E+04 53136   0.637E+02
DAV:   3    -0.293033983399E+03   -0.38247E+03   -0.35995E+03 77760   0.161E+02
DAV:   4    -0.324399826769E+03   -0.31366E+02   -0.30474E+02 72704   0.401E+01
DAV:   5    -0.325326280227E+03   -0.92645E+00   -0.90515E+00 69472   0.619E+00    0.360E+01
DAV:   6    -0.286055341691E+03    0.39271E+02   -0.12316E+02 58152   0.375E+01    0.907E+00
DAV:   7    -0.284182101729E+03    0.18732E+01   -0.15580E+01 69872   0.115E+01    0.359E+00
DAV:   8    -0.284283414548E+03   -0.10131E+00   -0.29703E+00 70320   0.698E+00    0.396E+00
DAV:   9    -0.284094466210E+03    0.18895E+00   -0.10016E+00 74720   0.459E+00    0.186E+00
DAV:  10    -0.284027306059E+03    0.67160E-01   -0.15650E-01 71536   0.146E+00    0.112E+00
DAV:  11    -0.283989663115E+03    0.37643E-01   -0.23742E-01 62680   0.164E+00    0.211E-01
DAV:  12    -0.283990538776E+03   -0.87566E-03   -0.10745E-02 71576   0.378E-01    0.237E-01
DAV:  13    -0.283989532830E+03    0.10059E-02   -0.32035E-03 68952   0.214E-01    0.106E-01
DAV:  14    -0.283989346829E+03    0.18600E-03   -0.70250E-04 71496   0.121E-01    0.572E-02
DAV:  15    -0.283989313957E+03    0.32872E-04   -0.15694E-04 73864   0.609E-02    0.414E-02
DAV:  16    -0.283989293925E+03    0.20032E-04   -0.50317E-05 74656   0.346E-02    0.315E-02
DAV:  17    -0.283989251425E+03    0.42501E-04   -0.46186E-05 67136   0.242E-02    0.143E-02
DAV:  18    -0.283989236682E+03    0.14743E-04   -0.10009E-05 71376   0.130E-02    0.611E-03
DAV:  19    -0.283989227744E+03    0.89375E-05   -0.26092E-06 71392   0.618E-03    0.233E-03
DAV:  20    -0.283989225658E+03    0.20859E-05   -0.41975E-07 73232   0.291E-03    0.885E-04
DAV:  21    -0.283989224645E+03    0.10128E-05   -0.12504E-07 67000   0.125E-03    0.495E-04
DAV:  22    -0.283989224762E+03   -0.11631E-06   -0.15184E-08 39720   0.740E-04    0.335E-04
DAV:  23    -0.283989225095E+03   -0.33381E-06   -0.81037E-09 35320   0.457E-04    0.116E-04
DAV:  24    -0.283989225195E+03   -0.99630E-07   -0.39385E-09 34352   0.251E-04    0.846E-05
DAV:  25    -0.283989225277E+03   -0.82247E-07   -0.24396E-09 33840   0.189E-04    0.569E-05
DAV:  26    -0.283989225292E+03   -0.14435E-07   -0.13284E-09 33416   0.988E-05    0.542E-05
DAV:  27    -0.283989225313E+03   -0.20853E-07   -0.65981E-10 33160   0.798E-05    0.523E-05
DAV:  28    -0.283989225315E+03   -0.25175E-08   -0.31551E-10 32904   0.447E-05
   1 F= -.28398923E+03 E0= -.28398789E+03  d E =-.266124E-02
