  36  36   0   0
  0.1763494E+02  0.8820702E-09  0.8820702E-09  0.9391624E-09  0.5000000E-15
  1.000000000000000E-004
  CAR 
 unknown system                          
      8.61432805    -29.38455931  301      5.78938868      1.00000000
    -29.385  0.0000E+00  0.0000E+00
    -29.258  0.0000E+00  0.0000E+00
    -29.131  0.0000E+00  0.0000E+00
    -29.005  0.0000E+00  0.0000E+00
    -28.878  0.0000E+00  0.0000E+00
    -28.751  0.0000E+00  0.0000E+00
    -28.625  0.0000E+00  0.0000E+00
    -28.498  0.0000E+00  0.0000E+00
    -28.371  0.0000E+00  0.0000E+00
    -28.245  0.0000E+00  0.0000E+00
    -28.118  0.0000E+00  0.0000E+00
    -27.991  0.0000E+00  0.0000E+00
    -27.865  0.0000E+00  0.0000E+00
    -27.738  0.0000E+00  0.0000E+00
    -27.611  0.5657E+01  0.7166E+00
    -27.485  0.1763E+03  0.2479E+02
    -27.358  0.1462E+03  0.5839E+02
    -27.231  0.1545E+03  0.8827E+02
    -27.105  0.3300E+03  0.1453E+03
    -26.978  0.2661E+03  0.2118E+03
    -26.851  0.0000E+00  0.2160E+03
    -26.725  0.0000E+00  0.2160E+03
    -26.598  0.0000E+00  0.2160E+03
    -26.471  0.0000E+00  0.2160E+03
    -26.345  0.0000E+00  0.2160E+03
    -26.218  0.0000E+00  0.2160E+03
    -26.091  0.0000E+00  0.2160E+03
    -25.965  0.0000E+00  0.2160E+03
    -25.838  0.0000E+00  0.2160E+03
    -25.711  0.0000E+00  0.2160E+03
    -25.585  0.0000E+00  0.2160E+03
    -25.458  0.0000E+00  0.2160E+03
    -25.331  0.0000E+00  0.2160E+03
    -25.205  0.0000E+00  0.2160E+03
    -25.078  0.0000E+00  0.2160E+03
    -24.951  0.0000E+00  0.2160E+03
    -24.825  0.0000E+00  0.2160E+03
    -24.698  0.0000E+00  0.2160E+03
    -24.571  0.0000E+00  0.2160E+03
    -24.445  0.0000E+00  0.2160E+03
    -24.318  0.0000E+00  0.2160E+03
    -24.191  0.0000E+00  0.2160E+03
    -24.065  0.0000E+00  0.2160E+03
    -23.938  0.0000E+00  0.2160E+03
    -23.811  0.0000E+00  0.2160E+03
    -23.685  0.0000E+00  0.2160E+03
    -23.558  0.0000E+00  0.2160E+03
    -23.431  0.0000E+00  0.2160E+03
    -23.305  0.0000E+00  0.2160E+03
    -23.178  0.0000E+00  0.2160E+03
    -23.051  0.0000E+00  0.2160E+03
    -22.925  0.0000E+00  0.2160E+03
    -22.798  0.0000E+00  0.2160E+03
    -22.671  0.0000E+00  0.2160E+03
    -22.545  0.0000E+00  0.2160E+03
    -22.418  0.0000E+00  0.2160E+03
    -22.291  0.0000E+00  0.2160E+03
    -22.165  0.0000E+00  0.2160E+03
    -22.038  0.0000E+00  0.2160E+03
    -21.911  0.0000E+00  0.2160E+03
    -21.785  0.0000E+00  0.2160E+03
    -21.658  0.0000E+00  0.2160E+03
    -21.531  0.0000E+00  0.2160E+03
    -21.405  0.0000E+00  0.2160E+03
    -21.278  0.0000E+00  0.2160E+03
    -21.151  0.0000E+00  0.2160E+03
    -21.025  0.0000E+00  0.2160E+03
    -20.898  0.0000E+00  0.2160E+03
    -20.771  0.0000E+00  0.2160E+03
    -20.645  0.0000E+00  0.2160E+03
    -20.518  0.0000E+00  0.2160E+03
    -20.391  0.0000E+00  0.2160E+03
    -20.265  0.0000E+00  0.2160E+03
    -20.138  0.0000E+00  0.2160E+03
    -20.012  0.0000E+00  0.2160E+03
    -19.885  0.0000E+00  0.2160E+03
    -19.758  0.0000E+00  0.2160E+03
    -19.632  0.0000E+00  0.2160E+03
    -19.505  0.0000E+00  0.2160E+03
    -19.378  0.0000E+00  0.2160E+03
    -19.252  0.0000E+00  0.2160E+03
    -19.125  0.0000E+00  0.2160E+03
    -18.998  0.0000E+00  0.2160E+03
    -18.872  0.0000E+00  0.2160E+03
    -18.745  0.0000E+00  0.2160E+03
    -18.618  0.0000E+00  0.2160E+03
    -18.492  0.0000E+00  0.2160E+03
    -18.365  0.0000E+00  0.2160E+03
    -18.238  0.0000E+00  0.2160E+03
    -18.112  0.0000E+00  0.2160E+03
    -17.985  0.0000E+00  0.2160E+03
    -17.858  0.0000E+00  0.2160E+03
    -17.732  0.0000E+00  0.2160E+03
    -17.605  0.0000E+00  0.2160E+03
    -17.478  0.0000E+00  0.2160E+03
    -17.352  0.0000E+00  0.2160E+03
    -17.225  0.0000E+00  0.2160E+03
    -17.098  0.0000E+00  0.2160E+03
    -16.972  0.0000E+00  0.2160E+03
    -16.845  0.0000E+00  0.2160E+03
    -16.718  0.0000E+00  0.2160E+03
    -16.592  0.0000E+00  0.2160E+03
    -16.465  0.0000E+00  0.2160E+03
    -16.338  0.0000E+00  0.2160E+03
    -16.212  0.0000E+00  0.2160E+03
    -16.085  0.0000E+00  0.2160E+03
    -15.958  0.0000E+00  0.2160E+03
    -15.832  0.0000E+00  0.2160E+03
    -15.705  0.0000E+00  0.2160E+03
    -15.578  0.0000E+00  0.2160E+03
    -15.452  0.0000E+00  0.2160E+03
    -15.325  0.0000E+00  0.2160E+03
    -15.198  0.0000E+00  0.2160E+03
    -15.072  0.0000E+00  0.2160E+03
    -14.945  0.0000E+00  0.2160E+03
    -14.818  0.0000E+00  0.2160E+03
    -14.692  0.0000E+00  0.2160E+03
    -14.565  0.0000E+00  0.2160E+03
    -14.438  0.0000E+00  0.2160E+03
    -14.312  0.0000E+00  0.2160E+03
    -14.185  0.0000E+00  0.2160E+03
    -14.058  0.0000E+00  0.2160E+03
    -13.932  0.0000E+00  0.2160E+03
    -13.805  0.0000E+00  0.2160E+03
    -13.678  0.0000E+00  0.2160E+03
    -13.552  0.0000E+00  0.2160E+03
    -13.425  0.0000E+00  0.2160E+03
    -13.298  0.0000E+00  0.2160E+03
    -13.172  0.0000E+00  0.2160E+03
    -13.045  0.0000E+00  0.2160E+03
    -12.918  0.0000E+00  0.2160E+03
    -12.792  0.0000E+00  0.2160E+03
    -12.665  0.0000E+00  0.2160E+03
    -12.538  0.0000E+00  0.2160E+03
    -12.412  0.0000E+00  0.2160E+03
    -12.285  0.0000E+00  0.2160E+03
    -12.158  0.0000E+00  0.2160E+03
    -12.032  0.0000E+00  0.2160E+03
    -11.905  0.0000E+00  0.2160E+03
    -11.778  0.0000E+00  0.2160E+03
    -11.652  0.0000E+00  0.2160E+03
    -11.525  0.0000E+00  0.2160E+03
    -11.398  0.0000E+00  0.2160E+03
    -11.272  0.0000E+00  0.2160E+03
    -11.145  0.0000E+00  0.2160E+03
    -11.018  0.0000E+00  0.2160E+03
    -10.892  0.0000E+00  0.2160E+03
    -10.765  0.0000E+00  0.2160E+03
    -10.638  0.0000E+00  0.2160E+03
    -10.512  0.0000E+00  0.2160E+03
    -10.385  0.0000E+00  0.2160E+03
    -10.258  0.0000E+00  0.2160E+03
    -10.132  0.0000E+00  0.2160E+03
    -10.005  0.0000E+00  0.2160E+03
     -9.878  0.0000E+00  0.2160E+03
     -9.752  0.0000E+00  0.2160E+03
     -9.625  0.0000E+00  0.2160E+03
     -9.498  0.0000E+00  0.2160E+03
     -9.372  0.0000E+00  0.2160E+03
     -9.245  0.0000E+00  0.2160E+03
     -9.118  0.0000E+00  0.2160E+03
     -8.992  0.0000E+00  0.2160E+03
     -8.865  0.0000E+00  0.2160E+03
     -8.738  0.0000E+00  0.2160E+03
     -8.612  0.0000E+00  0.2160E+03
     -8.485  0.0000E+00  0.2160E+03
     -8.359  0.0000E+00  0.2160E+03
     -8.232  0.0000E+00  0.2160E+03
     -8.105  0.0000E+00  0.2160E+03
     -7.979  0.0000E+00  0.2160E+03
     -7.852  0.0000E+00  0.2160E+03
     -7.725  0.0000E+00  0.2160E+03
     -7.599  0.0000E+00  0.2160E+03
     -7.472  0.0000E+00  0.2160E+03
     -7.345  0.0000E+00  0.2160E+03
     -7.219  0.0000E+00  0.2160E+03
     -7.092  0.0000E+00  0.2160E+03
     -6.965  0.0000E+00  0.2160E+03
     -6.839  0.0000E+00  0.2160E+03
     -6.712  0.0000E+00  0.2160E+03
     -6.585  0.0000E+00  0.2160E+03
     -6.459  0.0000E+00  0.2160E+03
     -6.332  0.0000E+00  0.2160E+03
     -6.205  0.0000E+00  0.2160E+03
     -6.079  0.0000E+00  0.2160E+03
     -5.952  0.0000E+00  0.2160E+03
     -5.825  0.0000E+00  0.2160E+03
     -5.699  0.0000E+00  0.2160E+03
     -5.572  0.0000E+00  0.2160E+03
     -5.445  0.0000E+00  0.2160E+03
     -5.319  0.0000E+00  0.2160E+03
     -5.192  0.0000E+00  0.2160E+03
     -5.065  0.0000E+00  0.2160E+03
     -4.939  0.0000E+00  0.2160E+03
     -4.812  0.0000E+00  0.2160E+03
     -4.685  0.0000E+00  0.2160E+03
     -4.559  0.0000E+00  0.2160E+03
     -4.432  0.0000E+00  0.2160E+03
     -4.305  0.0000E+00  0.2160E+03
     -4.179  0.0000E+00  0.2160E+03
     -4.052  0.0000E+00  0.2160E+03
     -3.925  0.0000E+00  0.2160E+03
     -3.799  0.0000E+00  0.2160E+03
     -3.672  0.0000E+00  0.2160E+03
     -3.545  0.0000E+00  0.2160E+03
     -3.419  0.0000E+00  0.2160E+03
     -3.292  0.0000E+00  0.2160E+03
     -3.165  0.0000E+00  0.2160E+03
     -3.039  0.0000E+00  0.2160E+03
     -2.912  0.0000E+00  0.2160E+03
     -2.785  0.0000E+00  0.2160E+03
     -2.659  0.0000E+00  0.2160E+03
     -2.532  0.0000E+00  0.2160E+03
     -2.405  0.0000E+00  0.2160E+03
     -2.279  0.0000E+00  0.2160E+03
     -2.152  0.0000E+00  0.2160E+03
     -2.025  0.0000E+00  0.2160E+03
     -1.899  0.0000E+00  0.2160E+03
     -1.772  0.0000E+00  0.2160E+03
     -1.645  0.0000E+00  0.2160E+03
     -1.519  0.0000E+00  0.2160E+03
     -1.392  0.0000E+00  0.2160E+03
     -1.265  0.0000E+00  0.2160E+03
     -1.139  0.0000E+00  0.2160E+03
     -1.012  0.0000E+00  0.2160E+03
     -0.885  0.0000E+00  0.2160E+03
     -0.759  0.0000E+00  0.2160E+03
     -0.632  0.0000E+00  0.2160E+03
     -0.505  0.0000E+00  0.2160E+03
     -0.379  0.5872E-11  0.2160E+03
     -0.252  0.4407E+00  0.2161E+03
     -0.125  0.1159E+01  0.2162E+03
      0.001  0.1404E+01  0.2164E+03
      0.128  0.1547E+01  0.2167E+03
      0.255  0.3219E+01  0.2171E+03
      0.381  0.3114E+00  0.2172E+03
      0.508  0.2323E+01  0.2178E+03
      0.635  0.1836E+01  0.2183E+03
      0.761  0.2798E+01  0.2187E+03
      0.888  0.1653E+01  0.2192E+03
      1.015  0.2320E+01  0.2198E+03
      1.141  0.4766E+01  0.2205E+03
      1.268  0.1945E+01  0.2210E+03
      1.395  0.3043E+01  0.2217E+03
      1.521  0.4027E+01  0.2226E+03
      1.648  0.2169E+01  0.2232E+03
      1.775  0.3395E+01  0.2240E+03
      1.901  0.7461E+01  0.2252E+03
      2.028  0.5269E+01  0.2262E+03
      2.155  0.4874E+01  0.2270E+03
      2.281  0.7850E+01  0.2283E+03
      2.408  0.6723E+01  0.2296E+03
      2.535  0.5054E+01  0.2309E+03
      2.661  0.6942E+01  0.2322E+03
      2.788  0.7047E+01  0.2340E+03
      2.914  0.5918E+01  0.2355E+03
      3.041  0.1525E+02  0.2390E+03
      3.168  0.1080E+02  0.2410E+03
      3.294  0.2952E+02  0.2463E+03
      3.421  0.1336E+02  0.2498E+03
      3.548  0.2138E+02  0.2545E+03
      3.674  0.2009E+02  0.2582E+03
      3.801  0.2971E+02  0.2645E+03
      3.928  0.2168E+02  0.2694E+03
      4.054  0.2897E+02  0.2755E+03
      4.181  0.4728E+02  0.2834E+03
      4.308  0.2464E+02  0.2893E+03
      4.434  0.2661E+02  0.2938E+03
      4.561  0.2497E+02  0.2990E+03
      4.688  0.3278E+02  0.3052E+03
      4.814  0.2624E+02  0.3109E+03
      4.941  0.3923E+02  0.3187E+03
      5.068  0.4222E+02  0.3277E+03
      5.194  0.4304E+02  0.3369E+03
      5.321  0.3603E+02  0.3452E+03
      5.448  0.1529E+02  0.3494E+03
      5.574  0.2357E+02  0.3538E+03
      5.701  0.1597E+02  0.3569E+03
      5.828  0.2571E+02  0.3614E+03
      5.954  0.4114E+02  0.3683E+03
      6.081  0.5208E+02  0.3785E+03
      6.208  0.5064E+02  0.3886E+03
      6.334  0.4008E+02  0.3978E+03
      6.461  0.5270E+02  0.4079E+03
      6.588  0.5730E+02  0.4191E+03
      6.714  0.4508E+02  0.4282E+03
      6.841  0.1052E+02  0.4319E+03
      6.968  0.0000E+00  0.4320E+03
      7.094  0.0000E+00  0.4320E+03
      7.221  0.0000E+00  0.4320E+03
      7.348  0.0000E+00  0.4320E+03
      7.474  0.0000E+00  0.4320E+03
      7.601  0.0000E+00  0.4320E+03
      7.728  0.0000E+00  0.4320E+03
      7.854  0.0000E+00  0.4320E+03
      7.981  0.0000E+00  0.4320E+03
      8.108  0.0000E+00  0.4320E+03
      8.234  0.0000E+00  0.4320E+03
      8.361  0.0000E+00  0.4320E+03
      8.488  0.0000E+00  0.4320E+03
      8.614  0.0000E+00  0.4320E+03
