   36   36    1    1
  0.1763494E+02  0.8820702E-09  0.8820702E-09  0.9391624E-09  0.5000000E-15
  1.000000000000000E-004
  CAR 
 unknown system                          
  360  123  216
 
  0.0000000E+00  0.0000000E+00  0.0000000E+00  0.4081633E-02
   1      -27.6573
   2      -27.4746
   3      -27.4745
   4      -27.4744
   5      -27.4743
   6      -27.4705
   7      -27.4703
   8      -27.4702
   9      -27.4702
  10      -27.4701
  11      -27.4701
  12      -27.4700
  13      -27.4700
  14      -27.4683
  15      -27.4679
  16      -27.4677
  17      -27.4677
  18      -27.4676
  19      -27.4676
  20      -27.4674
  21      -27.4674
  22      -27.4673
  23      -27.4671
  24      -27.4053
  25      -27.4049
  26      -27.3797
  27      -27.3795
  28      -27.3785
  29      -27.3784
  30      -27.3783
  31      -27.3782
  32      -27.3337
  33      -27.3331
  34      -27.3047
  35      -27.3044
  36      -27.3029
  37      -27.3027
  38      -27.3008
  39      -27.3004
  40      -27.3004
  41      -27.3000
  42      -27.2773
  43      -27.2772
  44      -27.2770
  45      -27.2770
  46      -27.2767
  47      -27.2766
  48      -27.2565
  49      -27.2561
  50      -27.2522
  51      -27.2519
  52      -27.1939
  53      -27.1935
  54      -27.1472
  55      -27.1472
  56      -27.1380
  57      -27.1378
  58      -27.1376
  59      -27.1374
  60      -27.1373
  61      -27.1373
  62      -27.1371
  63      -27.1370
  64      -27.1361
  65      -27.1358
  66      -27.1358
  67      -27.1357
  68      -27.1356
  69      -27.1356
  70      -27.1352
  71      -27.1350
  72      -27.0901
  73      -27.0896
  74      -27.0896
  75      -27.0893
  76      -27.0866
  77      -27.0863
  78      -27.0791
  79      -27.0790
  80      -27.0790
  81      -27.0789
  82      -27.0744
  83      -27.0743
  84      -27.0742
  85      -27.0740
  86      -27.0661
  87      -27.0658
  88      -27.0657
  89      -27.0657
  90      -27.0656
  91      -27.0655
  92      -27.0654
  93      -27.0654
  94      -27.0410
  95      -27.0319
  96      -27.0004
  97      -27.0002
  98      -26.9940
  99      -26.9936
 100      -26.9935
 101      -26.9934
 102      -26.9933
 103      -26.9932
 104      -26.9931
 105      -26.9868
 106      -26.9867
 107      -26.9457
 108      -26.9414
 109       -0.3337
 110        1.4835
 111        1.4838
 112        2.2119
 113        2.2121
 114        2.2123
 115        2.2125
 116        2.2289
 117        2.2293
 118        3.0939
 119        3.0941
 120        3.0943
 121        3.0944
 122        3.0945
 123        3.0946
 124        3.0948
 125        3.0952
 126        3.1084
 127        3.1085
 128        3.1086
 129        3.1091
 130        3.1445
 131        4.0939
 132        4.0945
 133        4.1010
 134        4.1014
 135        4.1016
 136        4.1021
 137        4.1478
 138        4.1495
 139        4.3549
 140        4.3559
 141        4.3772
 142        4.3775
 143        4.3776
 144        4.3788
 145        4.4243
 146        4.4244
 147        4.4365
 148        4.4367
 149        4.5269
 150        4.5270
 151        4.5707
 152        4.5717
 153        4.5724
 154        4.5734
 155        4.7323
 156        4.7336
 157        4.7336
 158        4.7349
 159        5.1121
 160        5.1139
 161        5.1140
 162        5.1145
 163        5.1146
 164        5.1146
 165        5.1149
 166        5.1161
 167        5.1166
 168        5.1176
 169        5.1179
 170        5.1189
 171        5.1964
 172        5.1973
 173        5.1974
 174        5.1981
 175        5.2241
 176        5.2256
 177        5.5648
 178        5.5650
 179        5.5650
 180        5.5651
 181        5.8352
 182        5.8378
 183        5.9702
 184        5.9713
 185        6.0230
 186        6.0246
 187        6.3396
 188        6.3406
 189        6.3409
 190        6.3414
 191        6.3417
 192        6.3419
 193        6.3424
 194        6.3428
 195        6.3805
 196        6.3814
 197        6.3819
 198        6.3831
 199        6.4347
 200        6.4348
 201        6.4687
 202        6.4718
 203        6.4725
 204        6.4961
 205        6.4967
 206        6.5060
 207        6.5237
 208        6.5246
 209        6.5264
 210        6.5304
 211        6.5337
 212        6.5343
 213        6.5359
 214        6.5438
 215        6.5661
 216        6.5733
 
  0.1428571E+00  0.0000000E+00  0.0000000E+00  0.8163265E-02
   1      -27.6526
   2      -27.5096
   3      -27.5085
   4      -27.5084
   5      -27.4887
   6      -27.4886
   7      -27.4867
   8      -27.4866
   9      -27.4862
  10      -27.4860
  11      -27.4806
  12      -27.4805
  13      -27.4805
  14      -27.4804
  15      -27.4497
  16      -27.4495
  17      -27.4468
  18      -27.4467
  19      -27.4449
  20      -27.4442
  21      -27.4316
  22      -27.4290
  23      -27.4288
  24      -27.4267
  25      -27.4131
  26      -27.4101
  27      -27.4065
  28      -27.4039
  29      -27.3473
  30      -27.3469
  31      -27.3348
  32      -27.3342
  33      -27.3255
  34      -27.3166
  35      -27.3150
  36      -27.3136
  37      -27.3040
  38      -27.3027
  39      -27.2898
  40      -27.2895
  41      -27.2894
  42      -27.2890
  43      -27.2886
  44      -27.2875
  45      -27.2872
  46      -27.2856
  47      -27.2541
  48      -27.2530
  49      -27.2246
  50      -27.2206
  51      -27.2185
  52      -27.1780
  53      -27.1776
  54      -27.1583
  55      -27.1522
  56      -27.1491
  57      -27.1448
  58      -27.1447
  59      -27.1417
  60      -27.1416
  61      -27.1397
  62      -27.1396
  63      -27.1388
  64      -27.1366
  65      -27.1365
  66      -27.1350
  67      -27.1349
  68      -27.1297
  69      -27.1262
  70      -27.1261
  71      -27.1190
  72      -27.1157
  73      -27.1044
  74      -27.1007
  75      -27.0810
  76      -27.0809
  77      -27.0798
  78      -27.0797
  79      -27.0793
  80      -27.0792
  81      -27.0782
  82      -27.0776
  83      -27.0774
  84      -27.0759
  85      -27.0733
  86      -27.0731
  87      -27.0682
  88      -27.0681
  89      -27.0650
  90      -27.0607
  91      -27.0605
  92      -27.0516
  93      -27.0514
  94      -27.0498
  95      -27.0363
  96      -27.0111
  97      -27.0042
  98      -27.0019
  99      -27.0006
 100      -27.0001
 101      -27.0000
 102      -26.9960
 103      -26.9941
 104      -26.9900
 105      -26.9899
 106      -26.9832
 107      -26.9553
 108      -26.9436
 109       -0.2704
 110        1.5375
 111        1.5378
 112        1.6561
 113        1.9786
 114        1.9918
 115        2.5156
 116        2.5348
 117        2.7302
 118        2.8783
 119        2.8785
 120        3.0318
 121        3.0320
 122        3.0437
 123        3.0439
 124        3.1950
 125        3.2003
 126        3.2006
 127        3.2147
 128        3.2150
 129        3.2165
 130        3.2168
 131        3.9848
 132        4.0707
 133        4.0787
 134        4.1392
 135        4.1406
 136        4.1476
 137        4.1633
 138        4.1710
 139        4.1837
 140        4.2525
 141        4.2730
 142        4.2771
 143        4.2842
 144        4.3350
 145        4.3358
 146        4.3368
 147        4.3375
 148        4.4351
 149        4.4640
 150        4.4730
 151        4.4909
 152        4.5625
 153        4.5835
 154        4.6313
 155        4.9623
 156        4.9631
 157        4.9693
 158        4.9701
 159        5.0503
 160        5.0513
 161        5.0926
 162        5.0935
 163        5.0940
 164        5.0945
 165        5.1450
 166        5.1598
 167        5.1611
 168        5.1615
 169        5.1640
 170        5.1649
 171        5.1696
 172        5.1887
 173        5.1921
 174        5.1932
 175        5.2168
 176        5.2714
 177        5.5533
 178        5.5535
 179        5.5562
 180        5.5566
 181        5.7947
 182        5.7972
 183        5.9274
 184        5.9714
 185        6.0669
 186        6.1143
 187        6.1948
 188        6.1953
 189        6.2001
 190        6.2006
 191        6.2330
 192        6.2335
 193        6.3455
 194        6.3504
 195        6.3689
 196        6.3779
 197        6.3784
 198        6.3788
 199        6.4151
 200        6.4193
 201        6.4199
 202        6.4323
 203        6.4324
 204        6.4470
 205        6.4565
 206        6.4629
 207        6.4695
 208        6.4787
 209        6.5217
 210        6.5228
 211        6.5232
 212        6.5704
 213        6.5977
 214        6.5982
 215        6.6074
 216        6.6160
 
  0.2857143E+00 -0.2775558E-16  0.0000000E+00  0.8163265E-02
   1      -27.6386
   2      -27.5499
   3      -27.5376
   4      -27.5375
   5      -27.5015
   6      -27.5015
   7      -27.5003
   8      -27.5002
   9      -27.4989
  10      -27.4987
  11      -27.4931
  12      -27.4930
  13      -27.4929
  14      -27.4929
  15      -27.4699
  16      -27.4315
  17      -27.4313
  18      -27.4292
  19      -27.4291
  20      -27.4259
  21      -27.4254
  22      -27.4215
  23      -27.4214
  24      -27.4178
  25      -27.4167
  26      -27.3921
  27      -27.3918
  28      -27.3916
  29      -27.3599
  30      -27.3387
  31      -27.3382
  32      -27.3324
  33      -27.3283
  34      -27.3264
  35      -27.3236
  36      -27.3221
  37      -27.3195
  38      -27.3137
  39      -27.3122
  40      -27.2623
  41      -27.2612
  42      -27.2610
  43      -27.2609
  44      -27.2572
  45      -27.2570
  46      -27.2473
  47      -27.2445
  48      -27.2442
  49      -27.1952
  50      -27.1909
  51      -27.1762
  52      -27.1686
  53      -27.1630
  54      -27.1624
  55      -27.1622
  56      -27.1576
  57      -27.1575
  58      -27.1544
  59      -27.1430
  60      -27.1415
  61      -27.1410
  62      -27.1408
  63      -27.1397
  64      -27.1375
  65      -27.1374
  66      -27.1363
  67      -27.1361
  68      -27.1261
  69      -27.1225
  70      -27.1204
  71      -27.1184
  72      -27.1084
  73      -27.1083
  74      -27.0992
  75      -27.0861
  76      -27.0859
  77      -27.0849
  78      -27.0848
  79      -27.0813
  80      -27.0813
  81      -27.0803
  82      -27.0803
  83      -27.0794
  84      -27.0793
  85      -27.0779
  86      -27.0705
  87      -27.0690
  88      -27.0644
  89      -27.0642
  90      -27.0593
  91      -27.0591
  92      -27.0466
  93      -27.0435
  94      -27.0363
  95      -27.0362
  96      -27.0330
  97      -27.0270
  98      -27.0203
  99      -27.0202
 100      -27.0091
 101      -27.0082
 102      -27.0043
 103      -27.0019
 104      -26.9973
 105      -26.9972
 106      -26.9853
 107      -26.9726
 108      -26.9477
 109       -0.0833
 110        1.1141
 111        1.6950
 112        1.6953
 113        1.8214
 114        1.8298
 115        2.5811
 116        2.5812
 117        2.8762
 118        2.8962
 119        3.0030
 120        3.0031
 121        3.0111
 122        3.0112
 123        3.1529
 124        3.2696
 125        3.2699
 126        3.3405
 127        3.3527
 128        3.3530
 129        3.3659
 130        3.3661
 131        3.8485
 132        4.0205
 133        4.0370
 134        4.0373
 135        4.0496
 136        4.0501
 137        4.0520
 138        4.0524
 139        4.0530
 140        4.0925
 141        4.1033
 142        4.1254
 143        4.1407
 144        4.1771
 145        4.2023
 146        4.2632
 147        4.2712
 148        4.3363
 149        4.3622
 150        4.5825
 151        4.5944
 152        4.6778
 153        4.6956
 154        4.9378
 155        5.0027
 156        5.0038
 157        5.0488
 158        5.0698
 159        5.1047
 160        5.1057
 161        5.1090
 162        5.1100
 163        5.1236
 164        5.1468
 165        5.1524
 166        5.1854
 167        5.1865
 168        5.1875
 169        5.1884
 170        5.2115
 171        5.2126
 172        5.2141
 173        5.2149
 174        5.2901
 175        5.2914
 176        5.4170
 177        5.5832
 178        5.5836
 179        5.5908
 180        5.5912
 181        5.6899
 182        5.6921
 183        5.9327
 184        5.9719
 185        6.0419
 186        6.0498
 187        6.0503
 188        6.0721
 189        6.0726
 190        6.1490
 191        6.1753
 192        6.1758
 193        6.1923
 194        6.2039
 195        6.2286
 196        6.2373
 197        6.2666
 198        6.2671
 199        6.3033
 200        6.3038
 201        6.3400
 202        6.3833
 203        6.3874
 204        6.3914
 205        6.3991
 206        6.3992
 207        6.4573
 208        6.4690
 209        6.4902
 210        6.5384
 211        6.5698
 212        6.6169
 213        6.6170
 214        6.7056
 215        6.7451
 216        6.7462
 
  0.4285714E+00 -0.5551115E-16  0.0000000E+00  0.8163265E-02
   1      -27.6161
   2      -27.5860
   3      -27.5531
   4      -27.5531
   5      -27.5067
   6      -27.5066
   7      -27.5061
   8      -27.5060
   9      -27.5053
  10      -27.5052
  11      -27.5033
  12      -27.5033
  13      -27.5031
  14      -27.5030
  15      -27.4900
  16      -27.4348
  17      -27.4344
  18      -27.4301
  19      -27.4295
  20      -27.4203
  21      -27.4201
  22      -27.4195
  23      -27.4193
  24      -27.3876
  25      -27.3860
  26      -27.3778
  27      -27.3706
  28      -27.3645
  29      -27.3641
  30      -27.3554
  31      -27.3533
  32      -27.3476
  33      -27.3471
  34      -27.3414
  35      -27.3396
  36      -27.3371
  37      -27.3357
  38      -27.2821
  39      -27.2800
  40      -27.2554
  41      -27.2537
  42      -27.2310
  43      -27.2276
  44      -27.2255
  45      -27.2253
  46      -27.2203
  47      -27.2201
  48      -27.2011
  49      -27.1955
  50      -27.1906
  51      -27.1905
  52      -27.1851
  53      -27.1849
  54      -27.1814
  55      -27.1686
  56      -27.1682
  57      -27.1638
  58      -27.1556
  59      -27.1439
  60      -27.1411
  61      -27.1410
  62      -27.1395
  63      -27.1383
  64      -27.1382
  65      -27.1377
  66      -27.1375
  67      -27.1232
  68      -27.1114
  69      -27.1098
  70      -27.1027
  71      -27.0996
  72      -27.0905
  73      -27.0904
  74      -27.0903
  75      -27.0851
  76      -27.0850
  77      -27.0834
  78      -27.0833
  79      -27.0820
  80      -27.0818
  81      -27.0816
  82      -27.0815
  83      -27.0814
  84      -27.0813
  85      -27.0794
  86      -27.0664
  87      -27.0658
  88      -27.0646
  89      -27.0621
  90      -27.0620
  91      -27.0613
  92      -27.0602
  93      -27.0601
  94      -27.0598
  95      -27.0499
  96      -27.0498
  97      -27.0320
  98      -27.0256
  99      -27.0214
 100      -27.0212
 101      -27.0186
 102      -27.0166
 103      -27.0117
 104      -27.0115
 105      -27.0080
 106      -27.0078
 107      -26.9626
 108      -26.9541
 109        0.2200
 110        0.6258
 111        1.7437
 112        1.7466
 113        1.9416
 114        1.9418
 115        2.2507
 116        2.2509
 117        2.9951
 118        2.9951
 119        2.9979
 120        2.9981
 121        3.2727
 122        3.2865
 123        3.2869
 124        3.2922
 125        3.4366
 126        3.5493
 127        3.5496
 128        3.5597
 129        3.5600
 130        3.5607
 131        3.6705
 132        3.6889
 133        3.7145
 134        3.7840
 135        3.7844
 136        3.7908
 137        3.7912
 138        3.8157
 139        3.9858
 140        4.1191
 141        4.1335
 142        4.1398
 143        4.1516
 144        4.1575
 145        4.1668
 146        4.2363
 147        4.2570
 148        4.3507
 149        4.3550
 150        4.6527
 151        4.6570
 152        4.8013
 153        4.8189
 154        4.9287
 155        4.9473
 156        4.9772
 157        4.9783
 158        5.0542
 159        5.0640
 160        5.1504
 161        5.1514
 162        5.1590
 163        5.1601
 164        5.1611
 165        5.2070
 166        5.2080
 167        5.2178
 168        5.2187
 169        5.2436
 170        5.2448
 171        5.2454
 172        5.2461
 173        5.2885
 174        5.4132
 175        5.4148
 176        5.5532
 177        5.5551
 178        5.6386
 179        5.6672
 180        5.7801
 181        5.7804
 182        5.8029
 183        5.8032
 184        5.8963
 185        5.9638
 186        5.9641
 187        5.9720
 188        5.9724
 189        5.9848
 190        6.0180
 191        6.0451
 192        6.0455
 193        6.0754
 194        6.0758
 195        6.0778
 196        6.1056
 197        6.2384
 198        6.2388
 199        6.3014
 200        6.3273
 201        6.3275
 202        6.3290
 203        6.3298
 204        6.3308
 205        6.3545
 206        6.3703
 207        6.4534
 208        6.4645
 209        6.4772
 210        6.4885
 211        6.5790
 212        6.7237
 213        6.7700
 214        6.7702
 215        6.8187
 216        6.8496
 
 -0.1626303E-18  0.1428571E+00  0.0000000E+00  0.8163265E-02
   1      -27.6526
   2      -27.5097
   3      -27.5085
   4      -27.5084
   5      -27.4887
   6      -27.4886
   7      -27.4866
   8      -27.4865
   9      -27.4862
  10      -27.4859
  11      -27.4807
  12      -27.4805
  13      -27.4804
  14      -27.4803
  15      -27.4497
  16      -27.4496
  17      -27.4468
  18      -27.4467
  19      -27.4449
  20      -27.4441
  21      -27.4316
  22      -27.4289
  23      -27.4288
  24      -27.4268
  25      -27.4131
  26      -27.4101
  27      -27.4065
  28      -27.4039
  29      -27.3473
  30      -27.3469
  31      -27.3348
  32      -27.3342
  33      -27.3255
  34      -27.3166
  35      -27.3150
  36      -27.3136
  37      -27.3040
  38      -27.3027
  39      -27.2898
  40      -27.2895
  41      -27.2895
  42      -27.2890
  43      -27.2887
  44      -27.2875
  45      -27.2872
  46      -27.2855
  47      -27.2542
  48      -27.2529
  49      -27.2247
  50      -27.2206
  51      -27.2185
  52      -27.1780
  53      -27.1776
  54      -27.1583
  55      -27.1523
  56      -27.1491
  57      -27.1448
  58      -27.1447
  59      -27.1417
  60      -27.1416
  61      -27.1398
  62      -27.1396
  63      -27.1388
  64      -27.1366
  65      -27.1364
  66      -27.1350
  67      -27.1348
  68      -27.1296
  69      -27.1262
  70      -27.1261
  71      -27.1190
  72      -27.1156
  73      -27.1045
  74      -27.1007
  75      -27.0810
  76      -27.0809
  77      -27.0798
  78      -27.0797
  79      -27.0793
  80      -27.0793
  81      -27.0783
  82      -27.0776
  83      -27.0774
  84      -27.0759
  85      -27.0733
  86      -27.0731
  87      -27.0682
  88      -27.0681
  89      -27.0650
  90      -27.0607
  91      -27.0605
  92      -27.0516
  93      -27.0514
  94      -27.0498
  95      -27.0363
  96      -27.0111
  97      -27.0042
  98      -27.0019
  99      -27.0006
 100      -27.0001
 101      -27.0000
 102      -26.9960
 103      -26.9941
 104      -26.9900
 105      -26.9899
 106      -26.9832
 107      -26.9553
 108      -26.9436
 109       -0.2704
 110        1.5375
 111        1.5378
 112        1.6561
 113        1.9786
 114        1.9918
 115        2.5157
 116        2.5348
 117        2.7301
 118        2.8783
 119        2.8785
 120        3.0317
 121        3.0319
 122        3.0437
 123        3.0440
 124        3.1950
 125        3.2002
 126        3.2005
 127        3.2147
 128        3.2150
 129        3.2166
 130        3.2169
 131        3.9846
 132        4.0707
 133        4.0789
 134        4.1392
 135        4.1404
 136        4.1477
 137        4.1633
 138        4.1713
 139        4.1832
 140        4.2525
 141        4.2730
 142        4.2775
 143        4.2842
 144        4.3347
 145        4.3356
 146        4.3368
 147        4.3377
 148        4.4351
 149        4.4640
 150        4.4730
 151        4.4913
 152        4.5625
 153        4.5834
 154        4.6309
 155        4.9623
 156        4.9631
 157        4.9695
 158        4.9703
 159        5.0501
 160        5.0512
 161        5.0927
 162        5.0938
 163        5.0938
 164        5.0949
 165        5.1449
 166        5.1602
 167        5.1607
 168        5.1616
 169        5.1640
 170        5.1649
 171        5.1696
 172        5.1886
 173        5.1920
 174        5.1931
 175        5.2168
 176        5.2716
 177        5.5531
 178        5.5534
 179        5.5563
 180        5.5566
 181        5.7947
 182        5.7972
 183        5.9274
 184        5.9716
 185        6.0666
 186        6.1144
 187        6.1950
 188        6.1956
 189        6.1998
 190        6.2003
 191        6.2330
 192        6.2336
 193        6.3455
 194        6.3506
 195        6.3690
 196        6.3775
 197        6.3781
 198        6.3789
 199        6.4151
 200        6.4193
 201        6.4199
 202        6.4322
 203        6.4323
 204        6.4472
 205        6.4562
 206        6.4637
 207        6.4692
 208        6.4785
 209        6.5217
 210        6.5229
 211        6.5231
 212        6.5691
 213        6.5978
 214        6.5984
 215        6.6060
 216        6.6164
 
  0.1428571E+00  0.1428571E+00  0.0000000E+00  0.8163265E-02
   1      -27.6433
   2      -27.5273
   3      -27.5272
   4      -27.5222
   5      -27.5220
   6      -27.5220
   7      -27.5219
   8      -27.4937
   9      -27.4937
  10      -27.4849
  11      -27.4849
  12      -27.4663
  13      -27.4662
  14      -27.4661
  15      -27.4659
  16      -27.4578
  17      -27.4575
  18      -27.4498
  19      -27.4498
  20      -27.4311
  21      -27.4106
  22      -27.4103
  23      -27.4103
  24      -27.4101
  25      -27.4080
  26      -27.4058
  27      -27.4056
  28      -27.3738
  29      -27.3736
  30      -27.3427
  31      -27.3426
  32      -27.3374
  33      -27.3369
  34      -27.3321
  35      -27.3208
  36      -27.3157
  37      -27.3080
  38      -27.2890
  39      -27.2889
  40      -27.2818
  41      -27.2818
  42      -27.2809
  43      -27.2687
  44      -27.2683
  45      -27.2683
  46      -27.2680
  47      -27.2596
  48      -27.2030
  49      -27.1984
  50      -27.1963
  51      -27.1962
  52      -27.1634
  53      -27.1632
  54      -27.1585
  55      -27.1538
  56      -27.1537
  57      -27.1521
  58      -27.1520
  59      -27.1518
  60      -27.1516
  61      -27.1487
  62      -27.1459
  63      -27.1458
  64      -27.1457
  65      -27.1455
  66      -27.1304
  67      -27.1299
  68      -27.1213
  69      -27.1212
  70      -27.1210
  71      -27.1208
  72      -27.1079
  73      -27.1078
  74      -27.0932
  75      -27.0928
  76      -27.0825
  77      -27.0824
  78      -27.0823
  79      -27.0822
  80      -27.0812
  81      -27.0812
  82      -27.0798
  83      -27.0797
  84      -27.0766
  85      -27.0764
  86      -27.0764
  87      -27.0762
  88      -27.0688
  89      -27.0553
  90      -27.0548
  91      -27.0465
  92      -27.0463
  93      -27.0463
  94      -27.0461
  95      -27.0434
  96      -27.0222
  97      -27.0221
  98      -27.0143
  99      -27.0142
 100      -27.0122
 101      -27.0120
 102      -26.9999
 103      -26.9941
 104      -26.9940
 105      -26.9833
 106      -26.9831
 107      -26.9747
 108      -26.9464
 109       -0.1458
 110        1.4243
 111        1.4247
 112        1.6428
 113        1.6431
 114        2.3831
 115        2.3834
 116        2.7703
 117        2.7704
 118        2.7706
 119        2.7709
 120        2.9919
 121        2.9923
 122        3.2342
 123        3.2342
 124        3.2344
 125        3.2349
 126        3.2854
 127        3.2855
 128        3.2856
 129        3.2861
 130        3.2927
 131        3.9479
 132        3.9481
 133        4.0632
 134        4.0964
 135        4.0970
 136        4.1127
 137        4.1169
 138        4.1176
 139        4.1422
 140        4.1427
 141        4.1454
 142        4.1586
 143        4.1604
 144        4.1609
 145        4.2169
 146        4.2175
 147        4.3031
 148        4.3533
 149        4.3541
 150        4.4799
 151        4.5766
 152        4.7127
 153        4.7633
 154        4.7640
 155        5.0410
 156        5.0414
 157        5.0420
 158        5.0428
 159        5.0843
 160        5.0856
 161        5.1000
 162        5.1010
 163        5.1270
 164        5.1272
 165        5.1525
 166        5.1541
 167        5.1545
 168        5.1546
 169        5.1746
 170        5.1758
 171        5.2406
 172        5.2417
 173        5.2419
 174        5.2432
 175        5.2952
 176        5.2960
 177        5.5661
 178        5.5666
 179        5.5700
 180        5.5702
 181        5.7206
 182        5.7229
 183        5.9399
 184        5.9509
 185        6.1366
 186        6.1379
 187        6.1383
 188        6.1387
 189        6.1393
 190        6.1512
 191        6.1518
 192        6.1524
 193        6.1532
 194        6.1757
 195        6.1863
 196        6.1991
 197        6.2732
 198        6.2743
 199        6.3166
 200        6.3173
 201        6.4015
 202        6.4016
 203        6.4444
 204        6.4453
 205        6.4498
 206        6.4506
 207        6.5865
 208        6.5875
 209        6.5967
 210        6.5968
 211        6.6027
 212        6.6042
 213        6.6173
 214        6.6175
 215        6.6178
 216        6.6181
 
  0.2857143E+00  0.1428571E+00  0.0000000E+00  0.8163265E-02
   1      -27.6250
   2      -27.5655
   3      -27.5443
   4      -27.5442
   5      -27.5382
   6      -27.5274
   7      -27.5273
   8      -27.5104
   9      -27.5104
  10      -27.4891
  11      -27.4891
  12      -27.4809
  13      -27.4808
  14      -27.4792
  15      -27.4655
  16      -27.4584
  17      -27.4506
  18      -27.4505
  19      -27.4497
  20      -27.4252
  21      -27.4049
  22      -27.3971
  23      -27.3969
  24      -27.3931
  25      -27.3818
  26      -27.3781
  27      -27.3778
  28      -27.3764
  29      -27.3682
  30      -27.3520
  31      -27.3515
  32      -27.3438
  33      -27.3433
  34      -27.3399
  35      -27.3396
  36      -27.3393
  37      -27.3327
  38      -27.3189
  39      -27.2908
  40      -27.2501
  41      -27.2497
  42      -27.2377
  43      -27.2375
  44      -27.2351
  45      -27.2349
  46      -27.2287
  47      -27.2151
  48      -27.1946
  49      -27.1833
  50      -27.1817
  51      -27.1763
  52      -27.1761
  53      -27.1748
  54      -27.1721
  55      -27.1692
  56      -27.1644
  57      -27.1643
  58      -27.1585
  59      -27.1583
  60      -27.1513
  61      -27.1478
  62      -27.1477
  63      -27.1470
  64      -27.1433
  65      -27.1376
  66      -27.1255
  67      -27.1175
  68      -27.1174
  69      -27.1138
  70      -27.1098
  71      -27.1034
  72      -27.0987
  73      -27.0987
  74      -27.0923
  75      -27.0886
  76      -27.0879
  77      -27.0877
  78      -27.0844
  79      -27.0843
  80      -27.0837
  81      -27.0836
  82      -27.0830
  83      -27.0811
  84      -27.0810
  85      -27.0805
  86      -27.0804
  87      -27.0736
  88      -27.0735
  89      -27.0608
  90      -27.0526
  91      -27.0489
  92      -27.0456
  93      -27.0454
  94      -27.0386
  95      -27.0385
  96      -27.0370
  97      -27.0353
  98      -27.0343
  99      -27.0315
 100      -27.0314
 101      -27.0171
 102      -27.0082
 103      -27.0079
 104      -27.0035
 105      -27.0033
 106      -26.9914
 107      -26.9724
 108      -26.9532
 109        0.0990
 110        0.9063
 111        1.2845
 112        1.8450
 113        1.8453
 114        2.2913
 115        2.4508
 116        2.4510
 117        2.7077
 118        2.7079
 119        2.8270
 120        3.2648
 121        3.2649
 122        3.2959
 123        3.3181
 124        3.3185
 125        3.3495
 126        3.4130
 127        3.4133
 128        3.4531
 129        3.4534
 130        3.4763
 131        3.7075
 132        3.8131
 133        3.8361
 134        3.8366
 135        3.9222
 136        3.9269
 137        3.9272
 138        3.9689
 139        3.9707
 140        4.0199
 141        4.0784
 142        4.0820
 143        4.1487
 144        4.1590
 145        4.1810
 146        4.2619
 147        4.2884
 148        4.3907
 149        4.4368
 150        4.4458
 151        4.6520
 152        4.8462
 153        4.8649
 154        4.9326
 155        4.9484
 156        5.0070
 157        5.0081
 158        5.0501
 159        5.0755
 160        5.0766
 161        5.0831
 162        5.1306
 163        5.1731
 164        5.1739
 165        5.2038
 166        5.2045
 167        5.2103
 168        5.2110
 169        5.2117
 170        5.2127
 171        5.2833
 172        5.2851
 173        5.2863
 174        5.3459
 175        5.3473
 176        5.4880
 177        5.6013
 178        5.6033
 179        5.6302
 180        5.6308
 181        5.7879
 182        5.7882
 183        5.8092
 184        5.9506
 185        5.9508
 186        5.9524
 187        5.9743
 188        6.0008
 189        6.0013
 190        6.0040
 191        6.0787
 192        6.0791
 193        6.1147
 194        6.1791
 195        6.1796
 196        6.1986
 197        6.2093
 198        6.2687
 199        6.2884
 200        6.3380
 201        6.3435
 202        6.3436
 203        6.3655
 204        6.4073
 205        6.4152
 206        6.4157
 207        6.4726
 208        6.5163
 209        6.5333
 210        6.5410
 211        6.6377
 212        6.6842
 213        6.7228
 214        6.7270
 215        6.8013
 216        6.8043
 
  0.4285714E+00  0.1428571E+00  0.0000000E+00  0.8163265E-02
   1      -27.5987
   2      -27.5986
   3      -27.5522
   4      -27.5521
   5      -27.5419
   6      -27.5235
   7      -27.5235
   8      -27.5226
   9      -27.5225
  10      -27.4895
  11      -27.4890
  12      -27.4889
  13      -27.4886
  14      -27.4886
  15      -27.4681
  16      -27.4611
  17      -27.4568
  18      -27.4453
  19      -27.4451
  20      -27.4050
  21      -27.3994
  22      -27.3918
  23      -27.3915
  24      -27.3900
  25      -27.3888
  26      -27.3773
  27      -27.3650
  28      -27.3585
  29      -27.3566
  30      -27.3562