 vasp.4.6.28 25Jul05 complex 
 executed on             LinuxIFC date 2016.11.25  11:41:24
 running on    4 nodes
 distr:  one band on    1 nodes,    4 groups


--------------------------------------------------------------------------------------------------------


 INCAR:
 POTCAR:   PAW_PBE Ti_pv 07Sep2000                
 POTCAR:   PAW_PBE Ti_pv 07Sep2000                
   VRHFIN =Ti: d3 s1                                                            
   LEXCH  = PE                                                                  
   EATOM  =  1042.3781 eV,   76.6126 Ry                                         
                                                                                
   TITEL  = PAW_PBE Ti_pv 07Sep2000                                             
   LULTRA =        F    use ultrasoft PP ?                                      
   IUNSCR =        1    unscreen: 0-lin 1-nonlin 2-no                           
   RPACOR =    2.200    partial core radius                                     
   POMASS =   47.880; ZVAL   =   10.000    mass and valenz                      
   RCORE  =    2.500    outmost cutoff radius                                   
   RWIGS  =    2.500; RWIGS  =    1.323    wigner-seitz radius (au A)           
   ENMAX  =  222.338; ENMIN  =  166.753 eV                                      
   RCLOC  =    1.701    cutoff for local pot                                    
   LCOR   =        T    correct aug charges                                     
   LPAW   =        T    paw PP                                                  
   EAUG   =  482.848                                                            
   DEXC   =    -.008                                                            
   RMAX   =    3.092    core radius for proj-oper                               
   RAUG   =    1.300    factor for augmentation sphere                          
   RDEP   =    2.538    radius for radial grids                                 
   QCUT   =   -4.042; QGAM   =    8.085    optimization parameters              
                                                                                
   Description                                                                  
     l     E      TYP  RCUT    TYP  RCUT                                        
     1   .000     23  2.300                                                     
     1  -.100     23  2.300                                                     
     2   .000     23  2.500                                                     
     2   .000     23  2.500                                                     
     0   .000     23  2.500                                                     
     0  1.500     23  2.500                                                     
     3   .000      7   .000                                                     
  local pseudopotential read in
  partial core-charges read in
  atomic valenz-charges read in
  non local Contribution for L=           1  read in
    real space projection operators read in
  non local Contribution for L=           1  read in
    real space projection operators read in
  non local Contribution for L=           2  read in
    real space projection operators read in
  non local Contribution for L=           2  read in
    real space projection operators read in
  non local Contribution for L=           0  read in
    real space projection operators read in
  non local Contribution for L=           0  read in
    real space projection operators read in
    PAW grid and wavefunctions read in
 
   number of l-projection  operators is LMAX  =           6
   number of lm-projection operators is LMMAX =          18
 

 ----------------------------------------------------------------------------- 
|                                                                             |
|  ADVICE TO THIS USER RUNNING 'VASP/VAMP'   (HEAR YOUR MASTER'S VOICE ...):  |
|                                                                             |
|      You have a (more or less) 'large supercell' and for larger cells       |
|      it might be more efficient to use real space projection operators      |
|      So try LREAL= Auto  in the INCAR   file.                               |
|      Mind: If you want to do an extremely accurate calculations keep the    |
|      reciprocal projection scheme          (i.e. LREAL=.FALSE.)             |
|                                                                             |
 ----------------------------------------------------------------------------- 

 PAW_PBE Ti_pv 07Sep2000                :
 energy of atom  1       EATOM=-1042.3781
 kinetic energy error for atom=    0.0024 (will be added to EATOM!!)
 
 EXHCAR: internal setup
 exchange correlation table for  LEXCH =        8
   RHO(1)=    0.500       N(1)  =     2000
   RHO(2)=  100.500       N(2)  =     4000
 
 POSCAR: Ti                                      
  positions in direct lattice
  No initial velocities read in
 


--------------------------------------------------------------------------------------------------------


 ion  position               nearest neighbor table
   1  0.110  0.223  0.124-  30 2.89  31 2.89  21 2.90  28 2.90  22 2.90  19 2.91   3 2.93   4 2.94
                             7 2.94   2 2.95   9 2.95   5 2.96
   2  0.444  0.223  0.125-  19 2.90  28 2.90  23 2.90  32 2.90  29 2.90  20 2.90   3 2.94   8 2.94
                             5 2.94   1 2.95   7 2.95   6 2.95
   3  0.777  0.223  0.125-  20 2.90  29 2.90  24 2.90  33 2.90  30 2.90  21 2.90   1 2.93   2 2.94
                             9 2.94   6 2.94   8 2.95   4 2.95
   4  0.111  0.556  0.125-  24 2.90  33 2.90  25 2.90  34 2.90  22 2.90  31 2.90   1 2.94   6 2.94
                             5 2.94   7 2.94   3 2.95   8 2.95
   5  0.444  0.556  0.125-  22 2.90  31 2.90  26 2.90  35 2.90  32 2.90  23 2.90   4 2.94   6 2.94
                             2 2.94   8 2.94   9 2.95   1 2.96
   6  0.777  0.556  0.125-  23 2.90  32 2.90  27 2.90  36 2.90  33 2.90  24 2.90   4 2.94   5 2.94
                             3 2.94   9 2.94   7 2.95   2 2.95
   7  0.111  0.889  0.125-  27 2.90  36 2.90  28 2.90  19 2.90  34 2.90  25 2.90   9 2.94   8 2.94
                             4 2.94   1 2.94   2 2.95   6 2.95
   8  0.444  0.889  0.125-  25 2.90  34 2.90  29 2.90  20 2.90  26 2.90  35 2.90   7 2.94   9 2.94
                             2 2.94   5 2.94   3 2.95   4 2.95
   9  0.777  0.889  0.125-  26 2.90  35 2.90  30 2.90  21 2.90  27 2.90  36 2.90   7 2.94   8 2.94
                             3 2.94   6 2.94   1 2.95   5 2.95
  10  0.111  0.223  0.625-  21 2.90  30 2.90  22 2.90  31 2.90  19 2.90  28 2.90  12 2.94  11 2.94
                            16 2.94  13 2.94  18 2.95  14 2.95
  11  0.444  0.223  0.625-  19 2.90  28 2.90  23 2.90  32 2.90  29 2.90  20 2.90  10 2.94  12 2.94
                            17 2.94  14 2.94  16 2.95  15 2.95
  12  0.777  0.223  0.625-  20 2.90  29 2.90  24 2.90  33 2.90  30 2.90  21 2.90  10 2.94  11 2.94
                            18 2.94  15 2.94  17 2.95  13 2.95
  13  0.111  0.556  0.625-  24 2.90  33 2.90  25 2.90  34 2.90  22 2.90  31 2.90  15 2.94  14 2.94
                            10 2.94  16 2.94  12 2.95  17 2.95
  14  0.444  0.556  0.625-  22 2.90  31 2.90  26 2.90  35 2.90  32 2.90  23 2.90  13 2.94  15 2.94
                            11 2.94  17 2.94  10 2.95  18 2.95
  15  0.777  0.556  0.625-  23 2.90  32 2.90  27 2.90  36 2.90  33 2.90  24 2.90  13 2.94  14 2.94
                            12 2.94  18 2.94  16 2.95  11 2.95
  16  0.111  0.889  0.625-  27 2.90  36 2.90  28 2.90  19 2.90  34 2.90  25 2.90  18 2.94  17 2.94
                            10 2.94  13 2.94  11 2.95  15 2.95
  17  0.444  0.889  0.625-  25 2.90  34 2.90  29 2.90  20 2.90  26 2.90  35 2.90  16 2.94  18 2.94
                            11 2.94  14 2.94  12 2.95  13 2.95
  18  0.777  0.889  0.625-  26 2.90  35 2.90  30 2.90  21 2.90  27 2.90  36 2.90  16 2.94  17 2.94
                            12 2.94  15 2.94  10 2.95  14 2.95
  19  0.223  0.111  0.375-   2 2.90  11 2.90   7 2.90  16 2.90  10 2.90   1 2.91  21 2.94  20 2.94
                            25 2.94  22 2.94  27 2.95  23 2.95
  20  0.556  0.111  0.375-   3 2.90  12 2.90   8 2.90  17 2.90   2 2.90  11 2.90  19 2.94  21 2.94
                            26 2.94  23 2.94  25 2.95  24 2.95
  21  0.889  0.111  0.375-  10 2.90   9 2.90  18 2.90   1 2.90  12 2.90   3 2.90  19 2.94  20 2.94
                            27 2.94  24 2.94  26 2.95  22 2.95
  22  0.223  0.444  0.375-   5 2.90  14 2.90  10 2.90  13 2.90   4 2.90   1 2.90  24 2.94  23 2.94
                            19 2.94  25 2.94  21 2.95  26 2.95
  23  0.556  0.444  0.375-   6 2.90  15 2.90  11 2.90   2 2.90  14 2.90   5 2.90  22 2.94  24 2.94
                            20 2.94  26 2.94  19 2.95  27 2.95
  24  0.889  0.444  0.375-   4 2.90  13 2.90  12 2.90   3 2.90   6 2.90  15 2.90  22 2.94  23 2.94
                            21 2.94  27 2.94  25 2.95  20 2.95
  25  0.223  0.777  0.375-   8 2.90  17 2.90  13 2.90   4 2.90  16 2.90   7 2.90  27 2.94  26 2.94
                            19 2.94  22 2.94  20 2.95  24 2.95
  26  0.556  0.777  0.375-   9 2.90  18 2.90  14 2.90   5 2.90  17 2.90   8 2.90  25 2.94  27 2.94
                            20 2.94  23 2.94  21 2.95  22 2.95
  27  0.889  0.777  0.375-   7 2.90  16 2.90  15 2.90   6 2.90   9 2.90  18 2.90  25 2.94  26 2.94
                            21 2.94  24 2.94  19 2.95  23 2.95
  28  0.223  0.111  0.875-   2 2.90  11 2.90   7 2.90  16 2.90   1 2.90  10 2.90  30 2.94  29 2.94
                            34 2.94  31 2.94  36 2.95  32 2.95
  29  0.556  0.111  0.875-   3 2.90  12 2.90   8 2.90  17 2.90   2 2.90  11 2.90  28 2.94  30 2.94
                            35 2.94  32 2.94  34 2.95  33 2.95
  30  0.889  0.111  0.875-   1 2.89  10 2.90   9 2.90  18 2.90  12 2.90   3 2.90  28 2.94  29 2.94
                            36 2.94  33 2.94  35 2.95  31 2.95
  31  0.223  0.444  0.875-   1 2.89   5 2.90  14 2.90  10 2.90  13 2.90   4 2.90  33 2.94  32 2.94
                            28 2.94  34 2.94  30 2.95  35 2.95
  32  0.556  0.444  0.875-   6 2.90  15 2.90  11 2.90   2 2.90  14 2.90   5 2.90  31 2.94  33 2.94
                            29 2.94  35 2.94  28 2.95  36 2.95
  33  0.889  0.444  0.875-   4 2.90  13 2.90  12 2.90   3 2.90   6 2.90  15 2.90  31 2.94  32 2.94
                            30 2.94  36 2.94  34 2.95  29 2.95
  34  0.223  0.777  0.875-   8 2.90  17 2.90  13 2.90   4 2.90  16 2.90   7 2.90  36 2.94  35 2.94
                            28 2.94  31 2.94  29 2.95  33 2.95
  35  0.556  0.777  0.875-   9 2.90  18 2.90  14 2.90   5 2.90  17 2.90   8 2.90  34 2.94  36 2.94
                            29 2.94  32 2.94  30 2.95  31 2.95
  36  0.889  0.777  0.875-   7 2.90  16 2.90  15 2.90   6 2.90   9 2.90  18 2.90  34 2.94  35 2.94
                            30 2.94  33 2.94  28 2.95  32 2.95
 
  LATTYP: Found a base centered orthorhombic cell.
 ALAT       =     8.8635622795
 B/A-ratio  =     1.7208744689
 C/A-ratio  =     1.0595766871
  
  Lattice vectors:
  
 A1 = (   8.8206670999,   0.0247654402,   0.0000000000)
 A2 = (  -4.3888858705,   7.6513046101,   0.0000000000)
 A3 = (   0.0000000000,   0.0000000000,   9.3916239560)
 Subroutine PRICEL returns:
 Original cell was already a primitive cell.
 

Analysis of symmetry for initial positions (statically):

 Routine SETGRP: Setting up the symmetry group for a 
 base centered orthorhombic supercell.


 Subroutine GETGRP returns: Found  1 space group operations
 (whereof  1 operations were pure point group operations)
 out of a pool of  8 trial point group operations.


The static configuration has the point symmetry C_1 .

Analysis of symmetry for dynamics (positions and initial velocities):

 Subroutine DYNSYM returns: Found  1 space group operations
 (whereof  1 operations were pure point group operations)
 out of a pool of  1 trial space group operations
 (whereof  1 operations were pure point group operations)
 and found also     1 'primitive' translations


The dynamic configuration has the point symmetry C_1 .
 
 
 KPOINTS: Automatic mesh                          

Automatic generation of k-mesh.
 generate k-points for:   7   7   5
 
 Subroutine IBZKPT returns following result:
 ===========================================
 
 Found    123 irreducible k-points:
 
 Following reciprocal coordinates:
            Coordinates               Weight
  0.000000  0.000000  0.000000      1.000000
  0.142857  0.000000  0.000000      2.000000
  0.285714 -0.000000  0.000000      2.000000
  0.428571 -0.000000  0.000000      2.000000
 -0.000000  0.142857  0.000000      2.000000
  0.142857  0.142857  0.000000      2.000000
  0.285714  0.142857  0.000000      2.000000
  0.428571  0.142857  0.000000      2.000000
 -0.428571  0.142857  0.000000      2.000000
 -0.285714  0.142857  0.000000      2.000000
 -0.142857  0.142857  0.000000      2.000000
  0.000000  0.285714  0.000000      2.000000
  0.142857  0.285714  0.000000      2.000000
  0.285714  0.285714  0.000000      2.000000
  0.428571  0.285714  0.000000      2.000000
 -0.428571  0.285714  0.000000      2.000000
 -0.285714  0.285714  0.000000      2.000000
 -0.142857  0.285714  0.000000      2.000000
  0.000000  0.428571  0.000000      2.000000
  0.142857  0.428571  0.000000      2.000000
  0.285714  0.428571  0.000000      2.000000
  0.428571  0.428571  0.000000      2.000000
 -0.428571  0.428571  0.000000      2.000000
 -0.285714  0.428571  0.000000      2.000000
 -0.142857  0.428571  0.000000      2.000000
  0.000000  0.000000  0.200000      2.000000
  0.142857  0.000000  0.200000      2.000000
  0.285714 -0.000000  0.200000      2.000000
  0.428571 -0.000000  0.200000      2.000000
 -0.428571  0.000000  0.200000      2.000000
 -0.285714  0.000000  0.200000      2.000000
 -0.142857  0.000000  0.200000      2.000000
 -0.000000  0.142857  0.200000      2.000000
  0.142857  0.142857  0.200000      2.000000
  0.285714  0.142857  0.200000      2.000000
  0.428571  0.142857  0.200000      2.000000
 -0.428571  0.142857  0.200000      2.000000
 -0.285714  0.142857  0.200000      2.000000
 -0.142857  0.142857  0.200000      2.000000
  0.000000  0.285714  0.200000      2.000000
  0.142857  0.285714  0.200000      2.000000
  0.285714  0.285714  0.200000      2.000000
  0.428571  0.285714  0.200000      2.000000
 -0.428571  0.285714  0.200000      2.000000
 -0.285714  0.285714  0.200000      2.000000
 -0.142857  0.285714  0.200000      2.000000
  0.000000  0.428571  0.200000      2.000000
  0.142857  0.428571  0.200000      2.000000
  0.285714  0.428571  0.200000      2.000000
  0.428571  0.428571  0.200000      2.000000
 -0.428571  0.428571  0.200000      2.000000
 -0.285714  0.428571  0.200000      2.000000
 -0.142857  0.428571  0.200000      2.000000
  0.000000 -0.428571  0.200000      2.000000
  0.142857 -0.428571  0.200000      2.000000
  0.285714 -0.428571  0.200000      2.000000
  0.428571 -0.428571  0.200000      2.000000
 -0.428571 -0.428571  0.200000      2.000000
 -0.285714 -0.428571  0.200000      2.000000
 -0.142857 -0.428571  0.200000      2.000000
  0.000000 -0.285714  0.200000      2.000000
  0.142857 -0.285714  0.200000      2.000000
  0.285714 -0.285714  0.200000      2.000000
  0.428571 -0.285714  0.200000      2.000000
 -0.428571 -0.285714  0.200000      2.000000
 -0.285714 -0.285714  0.200000      2.000000
 -0.142857 -0.285714  0.200000      2.000000
  0.000000 -0.142857  0.200000      2.000000
  0.142857 -0.142857  0.200000      2.000000
  0.285714 -0.142857  0.200000      2.000000
  0.428571 -0.142857  0.200000      2.000000
 -0.428571 -0.142857  0.200000      2.000000
 -0.285714 -0.142857  0.200000      2.000000
 -0.142857 -0.142857  0.200000      2.000000
  0.000000  0.000000  0.400000      2.000000
  0.142857  0.000000  0.400000      2.000000
  0.285714 -0.000000  0.400000      2.000000
  0.428571 -0.000000  0.400000      2.000000
 -0.428571  0.000000  0.400000      2.000000
 -0.285714  0.000000  0.400000      2.000000
 -0.142857  0.000000  0.400000      2.000000
 -0.000000  0.142857  0.400000      2.000000
  0.142857  0.142857  0.400000      2.000000
  0.285714  0.142857  0.400000      2.000000
  0.428571  0.142857  0.400000      2.000000
 -0.428571  0.142857  0.400000      2.000000
 -0.285714  0.142857  0.400000      2.000000
 -0.142857  0.142857  0.400000      2.000000
  0.000000  0.285714  0.400000      2.000000
  0.142857  0.285714  0.400000      2.000000
  0.285714  0.285714  0.400000      2.000000
  0.428571  0.285714  0.400000      2.000000
 -0.428571  0.285714  0.400000      2.000000
 -0.285714  0.285714  0.400000      2.000000
 -0.142857  0.285714  0.400000      2.000000
  0.000000  0.428571  0.400000      2.000000
  0.142857  0.428571  0.400000      2.000000
  0.285714  0.428571  0.400000      2.000000
  0.428571  0.428571  0.400000      2.000000
 -0.428571  0.428571  0.400000      2.000000
 -0.285714  0.428571  0.400000      2.000000
 -0.142857  0.428571  0.400000      2.000000
  0.000000 -0.428571  0.400000      2.000000
  0.142857 -0.428571  0.400000      2.000000
  0.285714 -0.428571  0.400000      2.000000
  0.428571 -0.428571  0.400000      2.000000
 -0.428571 -0.428571  0.400000      2.000000
 -0.285714 -0.428571  0.400000      2.000000
 -0.142857 -0.428571  0.400000      2.000000
  0.000000 -0.285714  0.400000      2.000000
  0.142857 -0.285714  0.400000      2.000000
  0.285714 -0.285714  0.400000      2.000000
  0.428571 -0.285714  0.400000      2.000000
 -0.428571 -0.285714  0.400000      2.000000
 -0.285714 -0.285714  0.400000      2.000000
 -0.142857 -0.285714  0.400000      2.000000
  0.000000 -0.142857  0.400000      2.000000
  0.142857 -0.142857  0.400000      2.000000
  0.285714 -0.142857  0.400000      2.000000
  0.428571 -0.142857  0.400000      2.000000
 -0.428571 -0.142857  0.400000      2.000000
 -0.285714 -0.142857  0.400000      2.000000
 -0.142857 -0.142857  0.400000      2.000000
 
 Following cartesian coordinates:
            Coordinates               Weight
  0.000000  0.000000  0.000000      1.000000
  0.016170  0.009275  0.000000      2.000000
  0.032339  0.018550  0.000000      2.000000
  0.048509  0.027825  0.000000      2.000000
 -0.000052  0.018641  0.000000      2.000000
  0.016117  0.027916  0.000000      2.000000
  0.032287  0.037191  0.000000      2.000000
  0.048457  0.046466  0.000000      2.000000
 -0.048561 -0.009184  0.000000      2.000000
 -0.032392  0.000091  0.000000      2.000000
 -0.016222  0.009366  0.000000      2.000000
 -0.000105  0.037282  0.000000      2.000000
  0.016065  0.046557  0.000000      2.000000
  0.032235  0.055832  0.000000      2.000000
  0.048404  0.065107  0.000000      2.000000
 -0.048614  0.009456  0.000000      2.000000
 -0.032444  0.018732  0.000000      2.000000
 -0.016274  0.028007  0.000000      2.000000
 -0.000157  0.055923  0.000000      2.000000
  0.016013  0.065198  0.000000      2.000000
  0.032182  0.074473  0.000000      2.000000
  0.048352  0.083748  0.000000      2.000000
 -0.048666  0.028097  0.000000      2.000000
 -0.032496  0.037373  0.000000      2.000000
 -0.016327  0.046648  0.000000      2.000000
  0.000000  0.000000  0.021296      2.000000
  0.016170  0.009275  0.021296      2.000000
  0.032339  0.018550  0.021296      2.000000
  0.048509  0.027825  0.021296      2.000000
 -0.048509 -0.027825  0.021296      2.000000
 -0.032339 -0.018550  0.021296      2.000000
 -0.016170 -0.009275  0.021296      2.000000
 -0.000052  0.018641  0.021296      2.000000
  0.016117  0.027916  0.021296      2.000000
  0.032287  0.037191  0.021296      2.000000
  0.048457  0.046466  0.021296      2.000000
 -0.048561 -0.009184  0.021296      2.000000
 -0.032392  0.000091  0.021296      2.000000
 -0.016222  0.009366  0.021296      2.000000
 -0.000105  0.037282  0.021296      2.000000
  0.016065  0.046557  0.021296      2.000000
  0.032235  0.055832  0.021296      2.000000
  0.048404  0.065107  0.021296      2.000000
 -0.048614  0.009456  0.021296      2.000000
 -0.032444  0.018732  0.021296      2.000000
 -0.016274  0.028007  0.021296      2.000000
 -0.000157  0.055923  0.021296      2.000000
  0.016013  0.065198  0.021296      2.000000
  0.032182  0.074473  0.021296      2.000000
  0.048352  0.083748  0.021296      2.000000
 -0.048666  0.028097  0.021296      2.000000
 -0.032496  0.037373  0.021296      2.000000
 -0.016327  0.046648  0.021296      2.000000
  0.000157 -0.055923  0.021296      2.000000
  0.016327 -0.046648  0.021296      2.000000
  0.032496 -0.037373  0.021296      2.000000
  0.048666 -0.028097  0.021296      2.000000
 -0.048352 -0.083748  0.021296      2.000000
 -0.032182 -0.074473  0.021296      2.000000
 -0.016013 -0.065198  0.021296      2.000000
  0.000105 -0.037282  0.021296      2.000000
  0.016274 -0.028007  0.021296      2.000000
  0.032444 -0.018732  0.021296      2.000000
  0.048614 -0.009456  0.021296      2.000000
 -0.048404 -0.065107  0.021296      2.000000
 -0.032235 -0.055832  0.021296      2.000000
 -0.016065 -0.046557  0.021296      2.000000
  0.000052 -0.018641  0.021296      2.000000
  0.016222 -0.009366  0.021296      2.000000
  0.032392 -0.000091  0.021296      2.000000
  0.048561  0.009184  0.021296      2.000000
 -0.048457 -0.046466  0.021296      2.000000
 -0.032287 -0.037191  0.021296      2.000000
 -0.016117 -0.027916  0.021296      2.000000
  0.000000  0.000000  0.042591      2.000000
  0.016170  0.009275  0.042591      2.000000
  0.032339  0.018550  0.042591      2.000000
  0.048509  0.027825  0.042591      2.000000
 -0.048509 -0.027825  0.042591      2.000000
 -0.032339 -0.018550  0.042591      2.000000
 -0.016170 -0.009275  0.042591      2.000000
 -0.000052  0.018641  0.042591      2.000000
  0.016117  0.027916  0.042591      2.000000
  0.032287  0.037191  0.042591      2.000000
  0.048457  0.046466  0.042591      2.000000
 -0.048561 -0.009184  0.042591      2.000000
 -0.032392  0.000091  0.042591      2.000000
 -0.016222  0.009366  0.042591      2.000000
 -0.000105  0.037282  0.042591      2.000000
  0.016065  0.046557  0.042591      2.000000
  0.032235  0.055832  0.042591      2.000000
  0.048404  0.065107  0.042591      2.000000
 -0.048614  0.009456  0.042591      2.000000
 -0.032444  0.018732  0.042591      2.000000
 -0.016274  0.028007  0.042591      2.000000
 -0.000157  0.055923  0.042591      2.000000
  0.016013  0.065198  0.042591      2.000000
  0.032182  0.074473  0.042591      2.000000
  0.048352  0.083748  0.042591      2.000000
 -0.048666  0.028097  0.042591      2.000000
 -0.032496  0.037373  0.042591      2.000000
 -0.016327  0.046648  0.042591      2.000000
  0.000157 -0.055923  0.042591      2.000000
  0.016327 -0.046648  0.042591      2.000000
  0.032496 -0.037373  0.042591      2.000000
  0.048666 -0.028097  0.042591      2.000000
 -0.048352 -0.083748  0.042591      2.000000
 -0.032182 -0.074473  0.042591      2.000000
 -0.016013 -0.065198  0.042591      2.000000
  0.000105 -0.037282  0.042591      2.000000
  0.016274 -0.028007  0.042591      2.000000
  0.032444 -0.018732  0.042591      2.000000
  0.048614 -0.009456  0.042591      2.000000
 -0.048404 -0.065107  0.042591      2.000000
 -0.032235 -0.055832  0.042591      2.000000
 -0.016065 -0.046557  0.042591      2.000000
  0.000052 -0.018641  0.042591      2.000000
  0.016222 -0.009366  0.042591      2.000000
  0.032392 -0.000091  0.042591      2.000000
  0.048561  0.009184  0.042591      2.000000
 -0.048457 -0.046466  0.042591      2.000000
 -0.032287 -0.037191  0.042591      2.000000
 -0.016117 -0.027916  0.042591      2.000000
 


--------------------------------------------------------------------------------------------------------




 Dimension of arrays:
   k-Points           NKPTS =    123   number of bands    NBANDS=    216
   number of dos      NEDOS =    301   number of ions     NIONS =     36
   non local maximal  LDIM  =      6   non local SUM 2l+1 LMDIM =     18
   total plane-waves  NPLWV = 286720
   max r-space proj   IRMAX =      1   max aug-charges    IRDMAX=  17732
   dimension x,y,z NGX =    64 NGY =   64 NGZ =   70
   dimension x,y,z NGXF=   128 NGYF=  128 NGZF=  140
   support grid    NGXF=   128 NGYF=  128 NGZF=  140
   ions per type =              36
 NGX,Y,Z   is equivalent  to a cutoff of  12.06, 12.06, 12.39 a.u.
 NGXF,Y,Z  is equivalent  to a cutoff of  24.12, 24.12, 24.78 a.u.


 I would recommend the setting:
   dimension x,y,z NGX =    64 NGY =   64 NGZ =   68
 SYSTEM =  unknown system                          
 POSCAR =  Ti                                      

 Startparameter for this run:
   NWRITE =      2    write-flag & timer
   PREC   = accura    medium, high low
   ISTART =      0    job   : 0-new  1-cont  2-samecut
   ICHARG =      2    charge: 1-file 2-atom 10-const
   ISPIN  =      1    spin polarized calculation?
   LNONCOLLINEAR =      F non collinear calculations
   LSORBIT =      F    spin-orbit coupling
   INIWAV =      1    electr: 0-lowe 1-rand  2-diag
   LASPH  =      F    aspherical Exc in radial PAW
   METAGGA=      F    non-selfconsistent MetaGGA calc.

 Electronic Relaxation 1
   ENCUT  =  500.0 eV  36.75 Ry    6.06 a.u.  16.08 16.08 17.12*2*pi/ulx,y,z
   ENINI  =  500.0     initial cutoff
   ENAUG  =  482.8 eV  augmentation charge cutoff
   NELM   =     60;   NELMIN=  2; NELMDL=  0     # of ELM steps 
   EDIFF  = 0.1E-07   stopping-criterion for ELM
   LREAL  =      F    real-space projection
   LCOMPAT=      F    compatible to vasp.4.4
   LREAL_COMPAT= F    compatible to vasp.4.5.1-3
   GGA_COMPAT  = T    GGA compatible to vasp.4.4-vasp.4.6
   LMAXPAW     = -100 max onsite density
   LMAXMIX     =    2 max onsite mixed and CHGCAR
   VOSKOWN=      0    Vosko Wilk Nusair interpolation
   ROPT   =    0.00000
 Ionic relaxation
   EDIFFG = 0.1E-06   stopping-criterion for IOM
   NSW    =      0    number of steps for IOM
   NBLOCK =      1;   KBLOCK =      1    inner block; outer block 
   IBRION =     -1    ionic relax: 0-MD 1-quasi-New 2-CG
   NFREE  =      0    steps in history (QN), initial steepest desc. (CG)
   ISIF   =      2    stress and relaxation
   IWAVPR =     10    prediction:  0-non 1-charg 2-wave 3-comb
   ISYM   =      2    0-nonsym 1-usesym 2-fastsym
   LCORR  =      T    Harris-Foulkes like correction to forces

   POTIM  =   0.50    time-step for ionic-motion
   TEIN   =    0.0    initial temperature
   TEBEG  =    0.0;   TEEND  =   0.0 temperature during run
   SMASS  =  -3.00    Nose mass-parameter (am)
   estimated Nose-frequenzy (Omega)   =  0.10E-29 period in steps =****** mass=  -0.178E-26a.u.
   NPACO  =    256;   APACO  = 16.0  distance and # of slots for P.C.
   PSTRESS=    0.0 pullay stress

  Mass of Ions in am
   POMASS =  47.88
  Ionic Valenz
   ZVAL   =  10.00
  Atomic Wigner-Seitz radii
   RWIGS  =  -1.00
   NELECT =     360.0000    total number of electrons
   NUPDOWN=      -1.0000    fix difference up-down

 DOS related values:
   EMIN   =  10.00;   EMAX   =-10.00  energy-range for DOS
   ISMEAR =     0;   SIGMA  =   0.01  broadening in eV -4-tet -1-fermi 0-gaus

 Electronic relaxation 2 (details)
   IALGO  =     38    algorithm
   LDIAG  =      T    sub-space diagonalisation
   IMIX   =      4    mixing-type and parameters
     AMIX     =   0.40;   BMIX     =  1.00
     AMIX_MAG =   1.60;   BMIX_MAG =  1.00
     AMIN     =   0.10
     WC   =   100.;   INIMIX=   1;  MIXPRE=   1

 Intra band minimization:
   WEIMIN = 0.0000     energy-eigenvalue tresh-hold
   EBREAK =  0.12E-10  absolut break condition
   DEPER  =   0.30     relativ break condition  

   TIME   =   0.10     timestep for ELM

  volume/ion in A,a.u.               =      17.63       119.01
  Fermi-wavevector in a.u.,eV,Ry     =   1.355034 24.981887  1.836117

 Second variation
   LSECVAR=     F    do a second variation
 
 Write flags
   LWAVE  =      F    write WAVECAR
   LCHARG =      F    write CHGCAR
   LVTOT  =      F    write LOCPOT, local potential
   LELF   =      F    write electronic localiz. function (ELF)
   LORBIT =      0    0 simple, 1 ext, 2 COOP (PROOUT)


 Dipole corrections
   IDIPOL =      0    1-x, 2-y, 3-z
   LDIPOL =      F    correct potential



--------------------------------------------------------------------------------------------------------


 Static calculation
 charge density will be updated during run
 non-spin polarized calculation
 Variant of blocked Davidson
 Davidson routine will perform the subspace rotation
 performe sub-space diagonalisation
    after iterative eigenvector-optimisation
 modified Broyden-mixing scheme, WC =      100.0
 initial mixing is a Kerker type mixing with AMIX =  0.4000 and BMIX =      1.0000
 Hartree-type preconditioning will be used
 using additional bands           36
 reciprocal scheme for non local part
 use partial core corrections
 calculate Harris-corrections to forces 
   (improved forces if not selfconsistent)
 use gradient corrections 
 use of overlap-Matrix (Vanderbilt PP)
 Gauss-broadening in eV      SIGMA  =   0.01


--------------------------------------------------------------------------------------------------------


  energy-cutoff  :      500.00
  volume of cell :      634.86
      direct lattice vectors                 reciprocal lattice vectors
     8.820667100  0.024765440  0.000000000     0.113187820  0.064925977  0.000000000
    -4.388885871  7.651304610  0.000000000    -0.000366362  0.130486516  0.000000000
     0.000000000  0.000000000  9.391623956     0.000000000  0.000000000  0.106477858

  length of vectors
     8.820701866  8.820701867  9.391623956     0.130487030  0.130487030  0.106477858


 
 k-points in units of 2pi/SCALE and weight: Automatic mesh                          
   0.00000000  0.00000000  0.00000000       0.004
   0.01616969  0.00927514  0.00000000       0.008
   0.03233938  0.01855028  0.00000000       0.008
   0.04850907  0.02782542  0.00000000       0.008
  -0.00005234  0.01864093  0.00000000       0.008
   0.01611735  0.02791607  0.00000000       0.008
   0.03228704  0.03719121  0.00000000       0.008
   0.04845673  0.04646635  0.00000000       0.008
  -0.04856140 -0.00918449  0.00000000       0.008
  -0.03239171  0.00009065  0.00000000       0.008
  -0.01622203  0.00936579  0.00000000       0.008
  -0.00010467  0.03728186  0.00000000       0.008
   0.01606501  0.04655700  0.00000000       0.008
   0.03223470  0.05583214  0.00000000       0.008
   0.04840439  0.06510728  0.00000000       0.008
  -0.04861374  0.00945644  0.00000000       0.008
  -0.03244405  0.01873158  0.00000000       0.008
  -0.01627436  0.02800672  0.00000000       0.008
  -0.00015701  0.05592279  0.00000000       0.008
   0.01601268  0.06519793  0.00000000       0.008
   0.03218236  0.07447307  0.00000000       0.008
   0.04835205  0.08374821  0.00000000       0.008
  -0.04866608  0.02809737  0.00000000       0.008
  -0.03249639  0.03737251  0.00000000       0.008
  -0.01632670  0.04664765  0.00000000       0.008
   0.00000000  0.00000000  0.02129557       0.008
   0.01616969  0.00927514  0.02129557       0.008
   0.03233938  0.01855028  0.02129557       0.008
   0.04850907  0.02782542  0.02129557       0.008
  -0.04850907 -0.02782542  0.02129557       0.008
  -0.03233938 -0.01855028  0.02129557       0.008
  -0.01616969 -0.00927514  0.02129557       0.008
  -0.00005234  0.01864093  0.02129557       0.008
   0.01611735  0.02791607  0.02129557       0.008
   0.03228704  0.03719121  0.02129557       0.008
   0.04845673  0.04646635  0.02129557       0.008
  -0.04856140 -0.00918449  0.02129557       0.008
  -0.03239171  0.00009065  0.02129557       0.008
  -0.01622203  0.00936579  0.02129557       0.008
  -0.00010467  0.03728186  0.02129557       0.008
   0.01606501  0.04655700  0.02129557       0.008
   0.03223470  0.05583214  0.02129557       0.008
   0.04840439  0.06510728  0.02129557       0.008
  -0.04861374  0.00945644  0.02129557       0.008
  -0.03244405  0.01873158  0.02129557       0.008
  -0.01627436  0.02800672  0.02129557       0.008
  -0.00015701  0.05592279  0.02129557       0.008
   0.01601268  0.06519793  0.02129557       0.008
   0.03218236  0.07447307  0.02129557       0.008
   0.04835205  0.08374821  0.02129557       0.008
  -0.04866608  0.02809737  0.02129557       0.008
  -0.03249639  0.03737251  0.02129557       0.008
  -0.01632670  0.04664765  0.02129557       0.008
   0.00015701 -0.05592279  0.02129557       0.008
   0.01632670 -0.04664765  0.02129557       0.008
   0.03249639 -0.03737251  0.02129557       0.008
   0.04866608 -0.02809737  0.02129557       0.008
  -0.04835205 -0.08374821  0.02129557       0.008
  -0.03218236 -0.07447307  0.02129557       0.008
  -0.01601268 -0.06519793  0.02129557       0.008
   0.00010467 -0.03728186  0.02129557       0.008
   0.01627436 -0.02800672  0.02129557       0.008
   0.03244405 -0.01873158  0.02129557       0.008
   0.04861374 -0.00945644  0.02129557       0.008
  -0.04840439 -0.06510728  0.02129557       0.008
  -0.03223470 -0.05583214  0.02129557       0.008
  -0.01606501 -0.04655700  0.02129557       0.008
   0.00005234 -0.01864093  0.02129557       0.008
   0.01622203 -0.00936579  0.02129557       0.008
   0.03239171 -0.00009065  0.02129557       0.008
   0.04856140  0.00918449  0.02129557       0.008
  -0.04845673 -0.04646635  0.02129557       0.008
  -0.03228704 -0.03719121  0.02129557       0.008
  -0.01611735 -0.02791607  0.02129557       0.008
   0.00000000  0.00000000  0.04259114       0.008
   0.01616969  0.00927514  0.04259114       0.008
   0.03233938  0.01855028  0.04259114       0.008
   0.04850907  0.02782542  0.04259114       0.008
  -0.04850907 -0.02782542  0.04259114       0.008
  -0.03233938 -0.01855028  0.04259114       0.008
  -0.01616969 -0.00927514  0.04259114       0.008
  -0.00005234  0.01864093  0.04259114       0.008
   0.01611735  0.02791607  0.04259114       0.008
   0.03228704  0.03719121  0.04259114       0.008
   0.04845673  0.04646635  0.04259114       0.008
  -0.04856140 -0.00918449  0.04259114       0.008
  -0.03239171  0.00009065  0.04259114       0.008
  -0.01622203  0.00936579  0.04259114       0.008
  -0.00010467  0.03728186  0.04259114       0.008
   0.01606501  0.04655700  0.04259114       0.008
   0.03223470  0.05583214  0.04259114       0.008
   0.04840439  0.06510728  0.04259114       0.008
  -0.04861374  0.00945644  0.04259114       0.008
  -0.03244405  0.01873158  0.04259114       0.008
  -0.01627436  0.02800672  0.04259114       0.008
  -0.00015701  0.05592279  0.04259114       0.008
   0.01601268  0.06519793  0.04259114       0.008
   0.03218236  0.07447307  0.04259114       0.008
   0.04835205  0.08374821  0.04259114       0.008
  -0.04866608  0.02809737  0.04259114       0.008
  -0.03249639  0.03737251  0.04259114       0.008
  -0.01632670  0.04664765  0.04259114       0.008
   0.00015701 -0.05592279  0.04259114       0.008
   0.01632670 -0.04664765  0.04259114       0.008
   0.03249639 -0.03737251  0.04259114       0.008
   0.04866608 -0.02809737  0.04259114       0.008
  -0.04835205 -0.08374821  0.04259114       0.008
  -0.03218236 -0.07447307  0.04259114       0.008
  -0.01601268 -0.06519793  0.04259114       0.008
   0.00010467 -0.03728186  0.04259114       0.008
   0.01627436 -0.02800672  0.04259114       0.008
   0.03244405 -0.01873158  0.04259114       0.008
   0.04861374 -0.00945644  0.04259114       0.008
  -0.04840439 -0.06510728  0.04259114       0.008
  -0.03223470 -0.05583214  0.04259114       0.008
  -0.01606501 -0.04655700  0.04259114       0.008
   0.00005234 -0.01864093  0.04259114       0.008
   0.01622203 -0.00936579  0.04259114       0.008
   0.03239171 -0.00009065  0.04259114       0.008
   0.04856140  0.00918449  0.04259114       0.008
  -0.04845673 -0.04646635  0.04259114       0.008
  -0.03228704 -0.03719121  0.04259114       0.008
  -0.01611735 -0.02791607  0.04259114       0.008
 
 k-points in reciprocal lattice and weights: Automatic mesh                          
   0.00000000  0.00000000  0.00000000       0.004
   0.14285714  0.00000000  0.00000000       0.008
   0.28571429 -0.00000000  0.00000000       0.008
   0.42857143 -0.00000000  0.00000000       0.008
  -0.00000000  0.14285714  0.00000000       0.008
   0.14285714  0.14285714  0.00000000       0.008
   0.28571429  0.14285714  0.00000000       0.008
   0.42857143  0.14285714  0.00000000       0.008
  -0.42857143  0.14285714  0.00000000       0.008
  -0.28571429  0.14285714  0.00000000       0.008
  -0.14285714  0.14285714  0.00000000       0.008
   0.00000000  0.28571429  0.00000000       0.008
   0.14285714  0.28571429  0.00000000       0.008
   0.28571429  0.28571429  0.00000000       0.008
   0.42857143  0.28571429  0.00000000       0.008
  -0.42857143  0.28571429  0.00000000       0.008
  -0.28571429  0.28571429  0.00000000       0.008
  -0.14285714  0.28571429  0.00000000       0.008
   0.00000000  0.42857143  0.00000000       0.008
   0.14285714  0.42857143  0.00000000       0.008
   0.28571429  0.42857143  0.00000000       0.008
   0.42857143  0.42857143  0.00000000       0.008
  -0.42857143  0.42857143  0.00000000       0.008
  -0.28571429  0.42857143  0.00000000       0.008
  -0.14285714  0.42857143  0.00000000       0.008
   0.00000000  0.00000000  0.20000000       0.008
   0.14285714  0.00000000  0.20000000       0.008
   0.28571429 -0.00000000  0.20000000       0.008
   0.42857143 -0.00000000  0.20000000       0.008
  -0.42857143  0.00000000  0.20000000       0.008
  -0.28571429  0.00000000  0.20000000       0.008
  -0.14285714  0.00000000  0.20000000       0.008
  -0.00000000  0.14285714  0.20000000       0.008
   0.14285714  0.14285714  0.20000000       0.008
   0.28571429  0.14285714  0.20000000       0.008
   0.42857143  0.14285714  0.20000000       0.008
  -0.42857143  0.14285714  0.20000000       0.008
  -0.28571429  0.14285714  0.20000000       0.008
  -0.14285714  0.14285714  0.20000000       0.008
   0.00000000  0.28571429  0.20000000       0.008
   0.14285714  0.28571429  0.20000000       0.008
   0.28571429  0.28571429  0.20000000       0.008
   0.42857143  0.28571429  0.20000000       0.008
  -0.42857143  0.28571429  0.20000000       0.008
  -0.28571429  0.28571429  0.20000000       0.008
  -0.14285714  0.28571429  0.20000000       0.008
   0.00000000  0.42857143  0.20000000       0.008
   0.14285714  0.42857143  0.20000000       0.008
   0.28571429  0.42857143  0.20000000       0.008
   0.42857143  0.42857143  0.20000000       0.008
  -0.42857143  0.42857143  0.20000000       0.008
  -0.28571429  0.42857143  0.20000000       0.008
  -0.14285714  0.42857143  0.20000000       0.008
   0.00000000 -0.42857143  0.20000000       0.008
   0.14285714 -0.42857143  0.20000000       0.008
   0.28571429 -0.42857143  0.20000000       0.008
   0.42857143 -0.42857143  0.20000000       0.008
  -0.42857143 -0.42857143  0.20000000       0.008
  -0.28571429 -0.42857143  0.20000000       0.008
  -0.14285714 -0.42857143  0.20000000       0.008
   0.00000000 -0.28571429  0.20000000       0.008
   0.14285714 -0.28571429  0.20000000       0.008
   0.28571429 -0.28571429  0.20000000       0.008
   0.42857143 -0.28571429  0.20000000       0.008
  -0.42857143 -0.28571429  0.20000000       0.008
  -0.28571429 -0.28571429  0.20000000       0.008
  -0.14285714 -0.28571429  0.20000000       0.008
   0.00000000 -0.14285714  0.20000000       0.008
   0.14285714 -0.14285714  0.20000000       0.008
   0.28571429 -0.14285714  0.20000000       0.008
   0.42857143 -0.14285714  0.20000000       0.008
  -0.42857143 -0.14285714  0.20000000       0.008
  -0.28571429 -0.14285714  0.20000000       0.008
  -0.14285714 -0.14285714  0.20000000       0.008
   0.00000000  0.00000000  0.40000000       0.008
   0.14285714  0.00000000  0.40000000       0.008
   0.28571429 -0.00000000  0.40000000       0.008
   0.42857143 -0.00000000  0.40000000       0.008
  -0.42857143  0.00000000  0.40000000       0.008
  -0.28571429  0.00000000  0.40000000       0.008
  -0.14285714  0.00000000  0.40000000       0.008
  -0.00000000  0.14285714  0.40000000       0.008
   0.14285714  0.14285714  0.40000000       0.008
   0.28571429  0.14285714  0.40000000       0.008
   0.42857143  0.14285714  0.40000000       0.008
  -0.42857143  0.14285714  0.40000000       0.008
  -0.28571429  0.14285714  0.40000000       0.008
  -0.14285714  0.14285714  0.40000000       0.008
   0.00000000  0.28571429  0.40000000       0.008
   0.14285714  0.28571429  0.40000000       0.008
   0.28571429  0.28571429  0.40000000       0.008
   0.42857143  0.28571429  0.40000000       0.008
  -0.42857143  0.28571429  0.40000000       0.008
  -0.28571429  0.28571429  0.40000000       0.008
  -0.14285714  0.28571429  0.40000000       0.008
   0.00000000  0.42857143  0.40000000       0.008
   0.14285714  0.42857143  0.40000000       0.008
   0.28571429  0.42857143  0.40000000       0.008
   0.42857143  0.42857143  0.40000000       0.008
  -0.42857143  0.42857143  0.40000000       0.008
  -0.28571429  0.42857143  0.40000000       0.008
  -0.14285714  0.42857143  0.40000000       0.008
   0.00000000 -0.42857143  0.40000000       0.008
   0.14285714 -0.42857143  0.40000000       0.008
   0.28571429 -0.42857143  0.40000000       0.008
   0.42857143 -0.42857143  0.40000000       0.008
  -0.42857143 -0.42857143  0.40000000       0.008
  -0.28571429 -0.42857143  0.40000000       0.008
  -0.14285714 -0.42857143  0.40000000       0.008
   0.00000000 -0.28571429  0.40000000       0.008
   0.14285714 -0.28571429  0.40000000       0.008
   0.28571429 -0.28571429  0.40000000       0.008
   0.42857143 -0.28571429  0.40000000       0.008
  -0.42857143 -0.28571429  0.40000000       0.008
  -0.28571429 -0.28571429  0.40000000       0.008
  -0.14285714 -0.28571429  0.40000000       0.008
   0.00000000 -0.14285714  0.40000000       0.008
   0.14285714 -0.14285714  0.40000000       0.008
   0.28571429 -0.14285714  0.40000000       0.008
   0.42857143 -0.14285714  0.40000000       0.008
  -0.42857143 -0.14285714  0.40000000       0.008
  -0.28571429 -0.14285714  0.40000000       0.008
  -0.14285714 -0.14285714  0.40000000       0.008
 
 position of ions in fractional coordinates (direct lattice) 
   0.10996726  0.22258994  0.12422387
   0.44407673  0.22258994  0.12500000
   0.77741006  0.22258994  0.12500000
   0.11074339  0.55592327  0.12500000
   0.44407673  0.55592327  0.12500000
   0.77741006  0.55592327  0.12500000
   0.11074339  0.88925661  0.12500000
   0.44407673  0.88925661  0.12500000
   0.77741006  0.88925661  0.12500000
   0.11074339  0.22258994  0.62500000
   0.44407673  0.22258994  0.62500000
   0.77741006  0.22258994  0.62500000
   0.11074339  0.55592327  0.62500000
   0.44407673  0.55592327  0.62500000
   0.77741006  0.55592327  0.62500000
   0.11074339  0.88925661  0.62500000
   0.44407673  0.88925661  0.62500000
   0.77741006  0.88925661  0.62500000
   0.22258994  0.11074339  0.37500000
   0.55592327  0.11074339  0.37500000
   0.88925661  0.11074339  0.37500000
   0.22258994  0.44407673  0.37500000
   0.55592327  0.44407673  0.37500000
   0.88925661  0.44407673  0.37500000
   0.22258994  0.77741006  0.37500000
   0.55592327  0.77741006  0.37500000
   0.88925661  0.77741006  0.37500000
   0.22258994  0.11074339  0.87500000
   0.55592327  0.11074339  0.87500000
   0.88925661  0.11074339  0.87500000
   0.22258994  0.44407673  0.87500000
   0.55592327  0.44407673  0.87500000
   0.88925661  0.44407673  0.87500000
   0.22258994  0.77741006  0.87500000
   0.55592327  0.77741006  0.87500000
   0.88925661  0.77741006  0.87500000
 
 position of ions in cartesian coordinates  (Angst):
  -0.00693723  1.70582681  1.16666384
   2.94013115  1.71410118  1.17395299
   5.88035352  1.72235633  1.17395299
  -1.46305318  4.25628090  1.17395299
   1.47716919  4.26453605  1.17395299
   4.41739156  4.27279120  1.17395299
  -2.92601513  6.80671577  1.17395299
   0.01420723  6.81497092  1.17395299
   2.95442960  6.82322607  1.17395299
  -0.00009122  1.70584603  5.86976497
   2.94013115  1.71410118  5.86976497
   5.88035352  1.72235633  5.86976497
  -1.46305318  4.25628090  5.86976497
   1.47716919  4.26453605  5.86976497
   4.41739156  4.27279120  5.86976497
  -2.92601513  6.80671577  5.86976497
   0.01420723  6.81497092  5.86976497
   2.95442960  6.82322607  5.86976497
   1.47735163  0.85284398  3.52185898
   4.41757399  0.86109913  3.52185898
   7.35779636  0.86935428  3.52185898
   0.01438967  3.40327885  3.52185898
   2.95461204  3.41153400  3.52185898
   5.89483440  3.41978915  3.52185898
  -1.44857229  5.95371372  3.52185898
   1.49165008  5.96196887  3.52185898
   4.43187245  5.97022402  3.52185898
   1.47735163  0.85284398  8.21767096
   4.41757399  0.86109913  8.21767096
   7.35779636  0.86935428  8.21767096
   0.01438967  3.40327885  8.21767096
   2.95461204  3.41153400  8.21767096
   5.89483440  3.41978915  8.21767096
  -1.44857229  5.95371372  8.21767096
   1.49165008  5.96196887  8.21767096
   4.43187245  5.97022402  8.21767096
 


--------------------------------------------------------------------------------------------------------


 k-point  1 :  0.00000.00000.0000  plane waves:  16113
 k-point  2 :  0.14290.00000.0000  plane waves:  16105
 k-point  3 :  0.2857-.00000.0000  plane waves:  16117
 k-point  4 :  0.4286-.00000.0000  plane waves:  16106
 k-point  5 :  -.00000.14290.0000  plane waves:  16105
 k-point  6 :  0.14290.14290.0000  plane waves:  16132
 k-point  7 :  0.28570.14290.0000  plane waves:  16116
 k-point  8 :  0.42860.14290.0000  plane waves:  16122
 k-point  9 :  -.42860.14290.0000  plane waves:  16118
 k-point 10 :  -.28570.14290.0000  plane waves:  16092
 k-point 11 :  -.14290.14290.0000  plane waves:  16096
 k-point 12 :  0.00000.28570.0000  plane waves:  16117
 k-point 13 :  0.14290.28570.0000  plane waves:  16116
 k-point 14 :  0.28570.28570.0000  plane waves:  16120
 k-point 15 :  0.42860.28570.0000  plane waves:  16105
 k-point 16 :  -.42860.28570.0000  plane waves:  16123
 k-point 17 :  -.28570.28570.0000  plane waves:  16120
 k-point 18 :  -.14290.28570.0000  plane waves:  16092
 k-point 19 :  0.00000.42860.0000  plane waves:  16106
 k-point 20 :  0.14290.42860.0000  plane waves:  16122
 k-point 21 :  0.28570.42860.0000  plane waves:  16105
 k-point 22 :  0.42860.42860.0000  plane waves:  16116
 k-point 23 :  -.42860.42860.0000  plane waves:  16148
 k-point 24 :  -.28570.42860.0000  plane waves:  16123
 k-point 25 :  -.14290.42860.0000  plane waves:  16118
 k-point 26 :  0.00000.00000.2000  plane waves:  16100
 k-point 27 :  0.14290.00000.2000  plane waves:  16111
 k-point 28 :  0.2857-.00000.2000  plane waves:  16111
 k-point 29 :  0.4286-.00000.2000  plane waves:  16123
 k-point 30 :  -.42860.00000.2000  plane waves:  16123
 k-point 31 :  -.28570.00000.2000  plane waves:  16111
 k-point 32 :  -.14290.00000.2000  plane waves:  16111
 k-point 33 :  -.00000.14290.2000  plane waves:  16111
 k-point 34 :  0.14290.14290.2000  plane waves:  16111
 k-point 35 :  0.28570.14290.2000  plane waves:  16113
 k-point 36 :  0.42860.14290.2000  plane waves:  16112
 k-point 37 :  -.42860.14290.2000  plane waves:  16113
 k-point 38 :  -.28570.14290.2000  plane waves:  16115
 k-point 39 :  -.14290.14290.2000  plane waves:  16102
 k-point 40 :  0.00000.28570.2000  plane waves:  16111
 k-point 41 :  0.14290.28570.2000  plane waves:  16113
 k-point 42 :  0.28570.28570.2000  plane waves:  16122
 k-point 43 :  0.42860.28570.2000  plane waves:  16106
 k-point 44 :  -.42860.28570.2000  plane waves:  16114
 k-point 45 :  -.28570.28570.2000  plane waves:  16114
 k-point 46 :  -.14290.28570.2000  plane waves:  16115
 k-point 47 :  0.00000.42860.2000  plane waves:  16123
 k-point 48 :  0.14290.42860.2000  plane waves:  16112
 k-point 49 :  0.28570.42860.2000  plane waves:  16106
 k-point 50 :  0.42860.42860.2000  plane waves:  16126
 k-point 51 :  -.42860.42860.2000  plane waves:  16152
 k-point 52 :  -.28570.42860.2000  plane waves:  16114
 k-point 53 :  -.14290.42860.2000  plane waves:  16113
 k-point 54 :  0.0000-.42860.2000  plane waves:  16123
 k-point 55 :  0.1429-.42860.2000  plane waves:  16113
 k-point 56 :  0.2857-.42860.2000  plane waves:  16114
 k-point 57 :  0.4286-.42860.2000  plane waves:  16152
 k-point 58 :  -.4286-.42860.2000  plane waves:  16126
 k-point 59 :  -.2857-.42860.2000  plane waves:  16106
 k-point 60 :  -.1429-.42860.2000  plane waves:  16112
 k-point 61 :  0.0000-.28570.2000  plane waves:  16111
 k-point 62 :  0.1429-.28570.2000  plane waves:  16115
 k-point 63 :  0.2857-.28570.2000  plane waves:  16114
 k-point 64 :  0.4286-.28570.2000  plane waves:  16114
 k-point 65 :  -.4286-.28570.2000  plane waves:  16106
 k-point 66 :  -.2857-.28570.2000  plane waves:  16122
 k-point 67 :  -.1429-.28570.2000  plane waves:  16113
 k-point 68 :  0.0000-.14290.2000  plane waves:  16111
 k-point 69 :  0.1429-.14290.2000  plane waves:  16102
 k-point 70 :  0.2857-.14290.2000  plane waves:  16115
 k-point 71 :  0.4286-.14290.2000  plane waves:  16113
 k-point 72 :  -.4286-.14290.2000  plane waves:  16112
 k-point 73 :  -.2857-.14290.2000  plane waves:  16113
 k-point 74 :  -.1429-.14290.2000  plane waves:  16111
 k-point 75 :  0.00000.00000.4000  plane waves:  16060
 k-point 76 :  0.14290.00000.4000  plane waves:  16076
 k-point 77 :  0.2857-.00000.4000  plane waves:  16119
 k-point 78 :  0.4286-.00000.4000  plane waves:  16125
 k-point 79 :  -.42860.00000.4000  plane waves:  16125
 k-point 80 :  -.28570.00000.4000  plane waves:  16119
 k-point 81 :  -.14290.00000.4000  plane waves:  16076
 k-point 82 :  -.00000.14290.4000  plane waves:  16076
 k-point 83 :  0.14290.14290.4000  plane waves:  16109
 k-point 84 :  0.28570.14290.4000  plane waves:  16135
 k-point 85 :  0.42860.14290.4000  plane waves:  16133
 k-point 86 :  -.42860.14290.4000  plane waves:  16144
 k-point 87 :  -.28570.14290.4000  plane waves:  16108
 k-point 88 :  -.14290.14290.4000  plane waves:  16097
 k-point 89 :  0.00000.28570.4000  plane waves:  16119
 k-point 90 :  0.14290.28570.4000  plane waves:  16135
 k-point 91 :  0.28570.28570.4000  plane waves:  16140
 k-point 92 :  0.42860.28570.4000  plane waves:  16133
 k-point 93 :  -.42860.28570.4000  plane waves:  16150
 k-point 94 :  -.28570.28570.4000  plane waves:  16129
 k-point 95 :  -.14290.28570.4000  plane waves:  16108
 k-point 96 :  0.00000.42860.4000  plane waves:  16125
 k-point 97 :  0.14290.42860.4000  plane waves:  16133
 k-point 98 :  0.28570.42860.4000  plane waves:  16133
 k-point 99 :  0.42860.42860.4000  plane waves:  16146
 k-point ** :  -.42860.42860.4000  plane waves:  16118
 k-point ** :  -.28570.42860.4000  plane waves:  16150
 k-point ** :  -.14290.42860.4000  plane waves:  16144
 k-point ** :  0.0000-.42860.4000  plane waves:  16125
 k-point ** :  0.1429-.42860.4000  plane waves:  16144
 k-point ** :  0.2857-.42860.4000  plane waves:  16150
 k-point ** :  0.4286-.42860.4000  plane waves:  16118
 k-point ** :  -.4286-.42860.4000  plane waves:  16146
 k-point ** :  -.2857-.42860.4000  plane waves:  16133
 k-point ** :  -.1429-.42860.4000  plane waves:  16133
 k-point ** :  0.0000-.28570.4000  plane waves:  16119
 k-point ** :  0.1429-.28570.4000  plane waves:  16108
 k-point ** :  0.2857-.28570.4000  plane waves:  16129
 k-point ** :  0.4286-.28570.4000  plane waves:  16150
 k-point ** :  -.4286-.28570.4000  plane waves:  16133
 k-point ** :  -.2857-.28570.4000  plane waves:  16140
 k-point ** :  -.1429-.28570.4000  plane waves:  16135
 k-point ** :  0.0000-.14290.4000  plane waves:  16076
 k-point ** :  0.1429-.14290.4000  plane waves:  16097
 k-point ** :  0.2857-.14290.4000  plane waves:  16108
 k-point ** :  0.4286-.14290.4000  plane waves:  16144
 k-point ** :  -.4286-.14290.4000  plane waves:  16133
 k-point ** :  -.2857-.14290.4000  plane waves:  16135
 k-point ** :  -.1429-.14290.4000  plane waves:  16109

 maximum and minimum number of plane-waves per node :  16152 16060

 maximum number of plane-waves:  16152
 maximal index in each direction: 
   IXMAX= 16   IYMAX= 16   IZMAX= 17
   IXMIN=-16   IYMIN=-16   IZMIN=-17

 WARNING: wrap around error must be expected set NGX to  66
 WARNING: wrap around error must be expected set NGY to  66
 NGZ is ok and might be reduce to  70

 parallel 3dFFT wavefunction:
    minimum data exchange during FFTs selected (reduces bandwidth)
 parallel 3dFFT charge:
    minimum data exchange during FFTs selected (reduces bandwidth)

 For storing wavefunctions 6851.55 MBYTES are necessary
 For predicting wavefunctions  121.86 MBYTES are necessary
Broyden mixing: mesh for mixing (old mesh)
   NGX = 33   NGY = 33   NGZ = 35
  (NGX  =128   NGY  =128   NGZ  =140)
 gives a total of  38115 points
 initial charge density was supplied:
 charge density of overlapping atoms calculated
 number of electron  360.0000000 magnetization 
 keeping initial charge density in first step


--------------------------------------------------------------------------------------------------------


 Maximum index for augmentation-charges         4272 (set IRDMAX)


--------------------------------------------------------------------------------------------------------


 First call to EWALD:  gamma=   0.206
 Maximum number of real-space cells 3x 3x 3
 Maximum number of reciprocal cells 3x 3x 3

    FEWALD:  VPU time    0.01: CPU time    0.01


----------------------------------------- Iteration    1(   1)  ---------------------------------------


    POTLOK:  VPU time    1.73: CPU time    1.73
    SETDIJ:  VPU time    0.08: CPU time    0.09
    EDDAV :  VPU time 3725.23: CPU time 3764.44
    DOS   :  VPU time    0.00: CPU time   -0.00
    ------------------------------------------
      LOOP:  VPU time 3727.37: CPU time 3766.59

 eigenvalue-minimisations  : 53864
 total energy-change (2. order) : 0.4978412E+04  (-0.1720584E+05)
 number of electron  360.0000000 magnetization 
 augmentation part   360.0000000 magnetization 

 Free energy of the ion-electron system (eV)
  ---------------------------------------------------
  alpha Z        PSCENC =      2225.99217093
  Ewald energy   TEWEN  =    -28757.68680959
  -1/2 Hartree   DENC   =     -8057.08592114
  -V(xc)+E(xc)   XCENC  =      1291.25586866
  PAW double counting   =     25711.31321228   -25685.71707589
  entropy T*S    EENTRO =        -0.00089747
  eigenvalues    EBANDS =       724.81685543
  atomic energy  EATOM  =     37525.52423787
  ---------------------------------------------------
  free energy    TOTEN  =      4978.41164107 eV

  energy without entropy =     4978.41253854  energy(sigma->0) =     4978.41208980


--------------------------------------------------------------------------------------------------------




----------------------------------------- Iteration    1(   2)  ---------------------------------------


    EDDAV :  VPU time 3620.41: CPU time 3626.63
    DOS   :  VPU time    0.00: CPU time   -0.00
    ------------------------------------------
      LOOP:  VPU time 3620.75: CPU time 3626.98

 eigenvalue-minimisations  : 53136
 total energy-change (2. order) :-0.4888971E+04  (-0.4813826E+04)
 number of electron  360.0000000 magnetization 
 augmentation part   360.0000000 magnetization 

 Free energy of the ion-electron system (eV)
  ---------------------------------------------------
  alpha Z        PSCENC =      2225.99217093
  Ewald energy   TEWEN  =    -28757.68680959
  -1/2 Hartree   DENC   =     -8057.08592114
  -V(xc)+E(xc)   XCENC  =      1291.25586866
  PAW double counting   =     25711.31321228   -25685.71707589
  entropy T*S    EENTRO =        -0.00136069
  eigenvalues    EBANDS =     -4164.15342868
  atomic energy  EATOM  =     37525.52423787
  ---------------------------------------------------
  free energy    TOTEN  =        89.44089374 eV

  energy without entropy =       89.44225443  energy(sigma->0) =       89.44157409


--------------------------------------------------------------------------------------------------------




----------------------------------------- Iteration    1(   3)  ---------------------------------------


    EDDAV :  VPU time 4813.90: CPU time 4820.09
    DOS   :  VPU time    0.00: CPU time   -0.00
    ------------------------------------------
      LOOP:  VPU time 4814.24: CPU time 4820.44

 eigenvalue-minimisations  : 77760
 total energy-change (2. order) :-0.3824749E+03  (-0.3599473E+03)
 number of electron  360.0000000 magnetization 
 augmentation part   360.0000000 magnetization 

 Free energy of the ion-electron system (eV)
  ---------------------------------------------------
  alpha Z        PSCENC =      2225.99217093
  Ewald energy   TEWEN  =    -28757.68680959
  -1/2 Hartree   DENC   =     -8057.08592114
  -V(xc)+E(xc)   XCENC  =      1291.25586866
  PAW double counting   =     25711.31321228   -25685.71707589
  entropy T*S    EENTRO =        -0.00124451
  eigenvalues    EBANDS =     -4546.62842200
  atomic energy  EATOM  =     37525.52423787
  ---------------------------------------------------
  free energy    TOTEN  =      -293.03398340 eV

  energy without entropy =     -293.03273889  energy(sigma->0) =     -293.03336115


--------------------------------------------------------------------------------------------------------




----------------------------------------- Iteration    1(   4)  ---------------------------------------


    EDDAV :  VPU time 4506.04: CPU time 4510.95
    DOS   :  VPU time    0.00: CPU time   -0.00
    ------------------------------------------
      LOOP:  VPU time 4506.39: CPU time 4511.29

 eigenvalue-minimisations  : 72704
 total energy-change (2. order) :-0.3136584E+02  (-0.3047400E+02)
 number of electron  360.0000000 magnetization 
 augmentation part   360.0000000 magnetization 

 Free energy of the ion-electron system (eV)
  ---------------------------------------------------
  alpha Z        PSCENC =      2225.99217093
  Ewald energy   TEWEN  =    -28757.68680959
  -1/2 Hartree   DENC   =     -8057.08592114
  -V(xc)+E(xc)   XCENC  =      1291.25586866
  PAW double counting   =     25711.31321228   -25685.71707589
  entropy T*S    EENTRO =        -0.00061888
  eigenvalues    EBANDS =     -4577.99489100
  atomic energy  EATOM  =     37525.52423787
  ---------------------------------------------------
  free energy    TOTEN  =      -324.39982677 eV

  energy without entropy =     -324.39920789  energy(sigma->0) =     -324.39951733


--------------------------------------------------------------------------------------------------------




----------------------------------------- Iteration    1(   5)  ---------------------------------------


    EDDAV :  VPU time 4279.79: CPU time 4326.16
    DOS   :  VPU time    0.00: CPU time   -0.00
    CHARGE:  VPU time  217.01: CPU time  220.96
    MIXING:  VPU time    0.04: CPU time    0.05
    ------------------------------------------
      LOOP:  VPU time 4497.19: CPU time 4547.52

 eigenvalue-minimisations  : 69472
 total energy-change (2. order) :-0.9264535E+00  (-0.9051482E+00)
 number of electron  360.0000010 magnetization 
 augmentation part   157.0509391 magnetization 

 Broyden mixing:
  rms(total) = 0.36016E+01    rms(broyden)= 0.36015E+01
  rms(prec ) = 0.50955E+01
  weight for this iteration     100.00

 Free energy of the ion-electron system (eV)
  ---------------------------------------------------
  alpha Z        PSCENC =      2225.99217093
  Ewald energy   TEWEN  =    -28757.68680959
  -1/2 Hartree   DENC   =     -8057.08592114
  -V(xc)+E(xc)   XCENC  =      1291.25586866
  PAW double counting   =     25711.31321228   -25685.71707589
  entropy T*S    EENTRO =        -0.00092885
  eigenvalues    EBANDS =     -4578.92103449
  atomic energy  EATOM  =     37525.52423787
  ---------------------------------------------------
  free energy    TOTEN  =      -325.32628023 eV

  energy without entropy =     -325.32535138  energy(sigma->0) =     -325.32581580


--------------------------------------------------------------------------------------------------------




----------------------------------------- Iteration    1(   6)  ---------------------------------------


    POTLOK:  VPU time    1.79: CPU time    1.81
    SETDIJ:  VPU time    0.08: CPU time    0.08
    EDDAV :  VPU time 3689.82: CPU time 3738.20
    DOS   :  VPU time    0.00: CPU time   -0.00
    CHARGE:  VPU time  219.87: CPU time  222.35
    MIXING:  VPU time    0.08: CPU time    0.08
    ------------------------------------------
      LOOP:  VPU time 3911.99: CPU time 3962.87

 eigenvalue-minimisations  : 58152
 total energy-change (2. order) : 0.3927094E+02  (-0.1231639E+02)
 number of electron  360.0000011 magnetization 
 augmentation part   166.5643521 magnetization 

 Broyden mixing:
  rms(total) = 0.90702E+00    rms(broyden)= 0.90697E+00
  rms(prec ) = 0.12999E+01
  weight for this iteration     100.00

 eigenvalues of (default mixing * dielectric matrix)
  average eigenvalue GAMMA=   1.2591
  1.2591

 Free energy of the ion-electron system (eV)
  ---------------------------------------------------
  alpha Z        PSCENC =      2225.99217093
  Ewald energy   TEWEN  =    -28757.68680959
  -1/2 Hartree   DENC   =     -7338.19300639
  -V(xc)+E(xc)   XCENC  =      1253.22719546
  PAW double counting   =     24865.78958676   -24908.08372226
  entropy T*S    EENTRO =        -0.00166041
  eigenvalues    EBANDS =     -5152.62333406
  atomic energy  EATOM  =     37525.52423787
  ---------------------------------------------------
  free energy    TOTEN  =      -286.05534169 eV

  energy without entropy =     -286.05368128  energy(sigma->0) =     -286.05451148


--------------------------------------------------------------------------------------------------------




----------------------------------------- Iteration    1(   7)  ---------------------------------------


    POTLOK:  VPU time    1.43: CPU time    1.44
    SETDIJ:  VPU time    0.06: CPU time    0.06
    EDDAV :  VPU time 4302.69: CPU time 4311.68
    DOS   :  VPU time    0.00: CPU time   -0.00
    CHARGE:  VPU time  220.07: CPU time  220.59
    MIXING:  VPU time    0.06: CPU time    0.06
    ------------------------------------------
      LOOP:  VPU time 4524.66: CPU time 4534.18

 eigenvalue-minimisations  : 69872
 total energy-change (2. order) : 0.1873240E+01  (-0.1558032E+01)
 number of electron  360.0000011 magnetization 
 augmentation part   169.9640362 magnetization 

 Broyden mixing:
  rms(total) = 0.35926E+00    rms(broyden)= 0.35924E+00
  rms(prec ) = 0.42781E+00
  weight for this iteration     100.00

 eigenvalues of (default mixing * dielectric matrix)
  average eigenvalue GAMMA=   1.8487
  1.4071  2.2903

 Free energy of the ion-electron system (eV)
  ---------------------------------------------------
  alpha Z        PSCENC =      2225.99217093
  Ewald energy   TEWEN  =    -28757.68680959
  -1/2 Hartree   DENC   =     -7128.27658521
  -V(xc)+E(xc)   XCENC  =      1242.88107942
  PAW double counting   =     24977.24845801   -25058.18878249
  entropy T*S    EENTRO =        -0.00248342
  eigenvalues    EBANDS =     -5311.67338725
  atomic energy  EATOM  =     37525.52423787
  ---------------------------------------------------
  free energy    TOTEN  =      -284.18210173 eV

  energy without entropy =     -284.17961831  energy(sigma->0) =     -284.18086002


--------------------------------------------------------------------------------------------------------




----------------------------------------- Iteration    1(   8)  ---------------------------------------


    POTLOK:  VPU time    1.72: CPU time    1.72
    SETDIJ:  VPU time    0.08: CPU time    0.08
    EDDAV :  VPU time 4318.55: CPU time 4327.71
    DOS   :  VPU time    0.00: CPU time   -0.00
    CHARGE:  VPU time  220.05: CPU time  220.56
    MIXING:  VPU time    0.06: CPU time    0.06
    ------------------------------------------
      LOOP:  VPU time 4540.80: CPU time 4550.48

 eigenvalue-minimisations  : 70320
 total energy-change (2. order) :-0.1013128E+00  (-0.2970275E+00)
 number of electron  360.0000011 magnetization 
 augmentation part   168.9422199 magnetization 

 Broyden mixing:
  rms(total) = 0.39581E+00    rms(broyden)= 0.39580E+00
  rms(prec ) = 0.86454E+00
  weight for this iteration     100.00

 eigenvalues of (default mixing * dielectric matrix)
  average eigenvalue GAMMA=   1.3693
  2.5045  1.3646  0.2389

 Free energy of the ion-electron system (eV)
  ---------------------------------------------------
  alpha Z        PSCENC =      2225.99217093
  Ewald energy   TEWEN  =    -28757.68680959
  -1/2 Hartree   DENC   =     -7169.11154266
  -V(xc)+E(xc)   XCENC  =      1246.08628630
  PAW double counting   =     25487.25789653   -25584.34761217
  entropy T*S    EENTRO =        -0.00212597
  eigenvalues    EBANDS =     -5257.99591578
  atomic energy  EATOM  =     37525.52423787
  ---------------------------------------------------
  free energy    TOTEN  =      -284.28341455 eV

  energy without entropy =     -284.28128857  energy(sigma->0) =     -284.28235156


--------------------------------------------------------------------------------------------------------




----------------------------------------- Iteration    1(   9)  ---------------------------------------


    POTLOK:  VPU time    1.66: CPU time    1.67
    SETDIJ:  VPU time    0.08: CPU time    0.08
    EDDAV :  VPU time 4514.79: CPU time 4524.42
    DOS   :  VPU time    0.00: CPU time   -0.00
    CHARGE:  VPU time  220.66: CPU time  221.18
    MIXING:  VPU time    0.06: CPU time    0.06
    ------------------------------------------
      LOOP:  VPU time 4737.60: CPU time 4747.76

 eigenvalue-minimisations  : 74720
 total energy-change (2. order) : 0.1889483E+00  (-0.1001620E+00)
 number of electron  360.0000011 magnetization 
 augmentation part   168.8739784 magnetization 

 Broyden mixing:
  rms(total) = 0.18557E+00    rms(broyden)= 0.18556E+00
  rms(prec ) = 0.26790E+00
  weight for this iteration     100.00

 eigenvalues of (default mixing * dielectric matrix)
  average eigenvalue GAMMA=   1.1444
  2.5499  1.3018  0.5033  0.2225

 Free energy of the ion-electron system (eV)
  ---------------------------------------------------
  alpha Z        PSCENC =      2225.99217093
  Ewald energy   TEWEN  =    -28757.68680959
  -1/2 Hartree   DENC   =     -7167.21912026
  -V(xc)+E(xc)   XCENC  =      1246.28412016
  PAW double counting   =     25604.14437641   -25706.28957212
  entropy T*S    EENTRO =        -0.00217504
  eigenvalues    EBANDS =     -5254.84169457
  atomic energy  EATOM  =     37525.52423787
  ---------------------------------------------------
  free energy    TOTEN  =      -284.09446621 eV

  energy without entropy =     -284.09229117  energy(sigma->0) =     -284.09337869


--------------------------------------------------------------------------------------------------------




----------------------------------------- Iteration    1(  10)  ---------------------------------------


    POTLOK:  VPU time    1.62: CPU time    1.63
    SETDIJ:  VPU time    0.08: CPU time    0.08
    EDDAV :  VPU time 4368.93: CPU time 4378.24
    DOS   :  VPU time    0.00: CPU time   -0.00
    CHARGE:  VPU time  220.63: CPU time  221.16
    MIXING:  VPU time    0.06: CPU time    0.06
    ------------------------------------------
      LOOP:  VPU time 4591.66: CPU time 4601.52

 eigenvalue-minimisations  : 71536
 total energy-change (2. order) : 0.6716015E-01  (-0.1565013E-01)
 number of electron  360.0000011 magnetization 
 augmentation part   169.1222058 magnetization 

 Broyden mixing:
  rms(total) = 0.11159E+00    rms(broyden)= 0.11159E+00
  rms(prec ) = 0.15858E+00
  weight for this iteration     100.00

 eigenvalues of (default mixing * dielectric matrix)
  average eigenvalue GAMMA=   1.0728
  2.5938  1.1530  1.1530  0.2321  0.2321

 Free energy of the ion-electron system (eV)
  ---------------------------------------------------
  alpha Z        PSCENC =      2225.99217093
  Ewald energy   TEWEN  =    -28757.68680959
  -1/2 Hartree   DENC   =     -7151.01971995
  -V(xc)+E(xc)   XCENC  =      1245.42285267
  PAW double counting   =     25577.26062273   -25680.03986579
  entropy T*S    EENTRO =        -0.00248311
  eigenvalues    EBANDS =     -5269.47831182
  atomic energy  EATOM  =     37525.52423787
  ---------------------------------------------------
  free energy    TOTEN  =      -284.02730606 eV

  energy without entropy =     -284.02482295  energy(sigma->0) =     -284.02606451


--------------------------------------------------------------------------------------------------------




----------------------------------------- Iteration    1(  11)  ---------------------------------------


    POTLOK:  VPU time    1.70: CPU time    1.70
    SETDIJ:  VPU time    0.07: CPU time    0.07
    EDDAV :  VPU time 3909.93: CPU time 3918.29
    DOS   :  VPU time    0.00: CPU time   -0.00
    CHARGE:  VPU time  221.33: CPU time  221.85
    MIXING:  VPU time    0.06: CPU time    0.06
    ------------------------------------------
      LOOP:  VPU time 4133.44: CPU time 4142.32

 eigenvalue-minimisations  : 62680
 total energy-change (2. order) : 0.3764294E-01  (-0.2374213E-01)
 number of electron  360.0000011 magnetization 
 augmentation part   169.5705948 magnetization 

 Broyden mixing:
  rms(total) = 0.21142E-01    rms(broyden)= 0.21137E-01
  rms(prec ) = 0.33649E-01
  weight for this iteration     100.00

 eigenvalues of (default mixing * dielectric matrix)
  average eigenvalue GAMMA=   0.9904
  2.5900  1.2291  1.2291  0.4240  0.2188  0.2513

 Free energy of the ion-electron system (eV)
  ---------------------------------------------------
  alpha Z        PSCENC =      2225.99217093
  Ewald energy   TEWEN  =    -28757.68680959
  -1/2 Hartree   DENC   =     -7126.48098203
  -V(xc)+E(xc)   XCENC  =      1244.09933496
  PAW double counting   =     25529.99339753   -25633.10789769
  entropy T*S    EENTRO =        -0.00266701
  eigenvalues    EBANDS =     -5292.32044808
  atomic energy  EATOM  =     37525.52423787
  ---------------------------------------------------
  free energy    TOTEN  =      -283.98966311 eV

  energy without entropy =     -283.98699611  energy(sigma->0) =     -283.98832961


--------------------------------------------------------------------------------------------------------




----------------------------------------- Iteration    1(  12)  ---------------------------------------


    POTLOK:  VPU time    1.71: CPU time    1.72
    SETDIJ:  VPU time    0.07: CPU time    0.07
    EDDAV :  VPU time 4366.64: CPU time 4374.20
    DOS   :  VPU time    0.00: CPU time   -0.00
    CHARGE:  VPU time  220.35: CPU time  220.72
    MIXING:  VPU time    0.06: CPU time    0.06
    ------------------------------------------
      LOOP:  VPU time 4589.18: CPU time 4597.12

 eigenvalue-minimisations  : 71576
 total energy-change (2. order) :-0.8756617E-03  (-0.1074452E-02)
 number of electron  360.0000011 magnetization 
 augmentation part   169.6063744 magnetization 

 Broyden mixing:
  rms(total) = 0.23727E-01    rms(broyden)= 0.23727E-01
  rms(prec ) = 0.33154E-01
  weight for this iteration     100.00

 eigenvalues of (default mixing * dielectric matrix)
  average eigenvalue GAMMA=   1.0219
  2.5536  1.7724  1.1885  0.9013  0.2166  0.2603  0.2603

 Free energy of the ion-electron system (eV)
  ---------------------------------------------------
  alpha Z        PSCENC =      2225.99217093
  Ewald energy   TEWEN  =    -28757.68680959
  -1/2 Hartree   DENC   =     -7125.48615311
  -V(xc)+E(xc)   XCENC  =      1244.04391521
  PAW double counting   =     25527.69996935   -25630.33335831
  entropy T*S    EENTRO =        -0.00265610
  eigenvalues    EBANDS =     -5293.74185503
  atomic energy  EATOM  =     37525.52423787
  ---------------------------------------------------
  free energy    TOTEN  =      -283.99053878 eV

  energy without entropy =     -283.98788268  energy(sigma->0) =     -283.98921073


--------------------------------------------------------------------------------------------------------




----------------------------------------- Iteration    1(  13)  ---------------------------------------


    POTLOK:  VPU time    1.71: CPU time    1.71
    SETDIJ:  VPU time    0.07: CPU time    0.07
    EDDAV :  VPU time 4232.84: CPU time 4239.33
    DOS   :  VPU time    0.00: CPU time   -0.00
    CHARGE:  VPU time  223.06: CPU time  223.44
    MIXING:  VPU time    0.06: CPU time    0.06
    ------------------------------------------
      LOOP:  VPU time 4458.10: CPU time 4464.96

 eigenvalue-minimisations  : 68952
 total energy-change (2. order) : 0.1005946E-02  (-0.3203543E-03)
 number of electron  360.0000011 magnetization 
 augmentation part   169.5659872 magnetization 

 Broyden mixing:
  rms(total) = 0.10570E-01    rms(broyden)= 0.10570E-01
  rms(prec ) = 0.16587E-01
  weight for this iteration     100.00

 eigenvalues of (default mixing * dielectric matrix)
  average eigenvalue GAMMA=   0.9734
  2.5513  2.0127  1.1444  0.9324  0.4244  0.2172  0.2524  0.2524

 Free energy of the ion-electron system (eV)
  ---------------------------------------------------
  alpha Z        PSCENC =      2225.99217093
  Ewald energy   TEWEN  =    -28757.68680959
  -1/2 Hartree   DENC   =     -7129.08383670
  -V(xc)+E(xc)   XCENC  =      1244.23591533
  PAW double counting   =     25534.07072628   -25635.36096966
  entropy T*S    EENTRO =        -0.00265600
  eigenvalues    EBANDS =     -5291.67831128
  atomic energy  EATOM  =     37525.52423787
  ---------------------------------------------------
  free energy    TOTEN  =      -283.98953283 eV

  energy without entropy =     -283.98687683  energy(sigma->0) =     -283.98820483


--------------------------------------------------------------------------------------------------------




----------------------------------------- Iteration    1(  14)  ---------------------------------------


    POTLOK:  VPU time    1.71: CPU time    1.72
    SETDIJ:  VPU time    0.07: CPU time    0.07
    EDDAV :  VPU time 4333.38: CPU time 4356.00
    DOS   :  VPU time    0.00: CPU time   -0.00
    CHARGE:  VPU time  218.46: CPU time  221.03
    MIXING:  VPU time    0.07: CPU time    0.07
    ------------------------------------------
      LOOP:  VPU time 4554.04: CPU time 4579.25

 eigenvalue-minimisations  : 71496
 total energy-change (2. order) : 0.1860011E-03  (-0.7025039E-04)
 number of electron  360.0000011 magnetization 
 augmentation part   169.5534090 magnetization 

 Broyden mixing:
  rms(total) = 0.57207E-02    rms(broyden)= 0.57205E-02
  rms(prec ) = 0.90918E-02
  weight for this iteration     100.00

 eigenvalues of (default mixing * dielectric matrix)
  average eigenvalue GAMMA=   0.9772
  2.6163  1.9897  1.2854  0.9611  0.9611  0.2604  0.2604  0.2166  0.2437

 Free energy of the ion-electron system (eV)
  ---------------------------------------------------
  alpha Z        PSCENC =      2225.99217093
  Ewald energy   TEWEN  =    -28757.68680959
  -1/2 Hartree   DENC   =     -7130.20868791
  -V(xc)+E(xc)   XCENC  =      1244.29774512
  PAW double counting   =     25536.54544889   -25637.37578476
  entropy T*S    EENTRO =        -0.00265636
  eigenvalues    EBANDS =     -5291.07501102
  atomic energy  EATOM  =     37525.52423787
  ---------------------------------------------------
  free energy    TOTEN  =      -283.98934683 eV

  energy without entropy =     -283.98669047  energy(sigma->0) =     -283.98801865


--------------------------------------------------------------------------------------------------------




----------------------------------------- Iteration    1(  15)  ---------------------------------------


    POTLOK:  VPU time    1.59: CPU time    1.61
    SETDIJ:  VPU time    0.08: CPU time    0.08
    EDDAV :  VPU time 4440.79: CPU time 4485.29
    DOS   :  VPU time    0.00: CPU time   -0.00
    CHARGE:  VPU time  220.21: CPU time  222.82
    MIXING:  VPU time    0.06: CPU time    0.06
    ------------------------------------------
      LOOP:  VPU time 4663.08: CPU time 4710.29

 eigenvalue-minimisations  : 73864
 total energy-change (2. order) : 0.3287184E-04  (-0.1569439E-04)
 number of electron  360.0000011 magnetization 
 augmentation part   169.5530270 magnetization 

 Broyden mixing:
  rms(total) = 0.41377E-02    rms(broyden)= 0.41377E-02
  rms(prec ) = 0.69214E-02
  weight for this iteration     100.00

 eigenvalues of (default mixing * dielectric matrix)
  average eigenvalue GAMMA=   0.9172
  2.6244  1.9866  1.3276  0.9965  0.9965  0.2812  0.2812  0.2163  0.2309  0.2309

 Free energy of the ion-electron system (eV)
  ---------------------------------------------------
  alpha Z        PSCENC =      2225.99217093
  Ewald energy   TEWEN  =    -28757.68680959
  -1/2 Hartree   DENC   =     -7130.38826822
  -V(xc)+E(xc)   XCENC  =      1244.31091517
  PAW double counting   =     25537.76976925   -25638.40636860
  entropy T*S    EENTRO =        -0.00265694
  eigenvalues    EBANDS =     -5291.10230382
  atomic energy  EATOM  =     37525.52423787
  ---------------------------------------------------
  free energy    TOTEN  =      -283.98931396 eV

  energy without entropy =     -283.98665701  energy(sigma->0) =     -283.98798548


--------------------------------------------------------------------------------------------------------




----------------------------------------- Iteration    1(  16)  ---------------------------------------


    POTLOK:  VPU time    1.64: CPU time    1.68
    SETDIJ:  VPU time    0.08: CPU time    0.08
    EDDAV :  VPU time 4520.51: CPU time 4529.62
    DOS   :  VPU time    0.00: CPU time   -0.00
    CHARGE:  VPU time  223.12: CPU time  223.60
    MIXING:  VPU time    0.09: CPU time    0.09
    ------------------------------------------
      LOOP:  VPU time 4745.78: CPU time 4755.43

 eigenvalue-minimisations  : 74656
 total energy-change (2. order) : 0.2003192E-04  (-0.5031689E-05)
 number of electron  360.0000011 magnetization 
 augmentation part   169.5521535 magnetization 

 Broyden mixing:
  rms(total) = 0.31508E-02    rms(broyden)= 0.31507E-02
  rms(prec ) = 0.44288E-02
  weight for this iteration     100.00

 eigenvalues of (default mixing * dielectric matrix)
  average eigenvalue GAMMA=   0.9536
  2.6296  2.0678  1.6088  1.1059  1.1059  0.7754  0.2696  0.2516  0.2516  0.2160
  0.2071

 Free energy of the ion-electron system (eV)
  ---------------------------------------------------
  alpha Z        PSCENC =      2225.99217093
  Ewald energy   TEWEN  =    -28757.68680959
  -1/2 Hartree   DENC   =     -7130.48928201
  -V(xc)+E(xc)   XCENC  =      1244.31723505
  PAW double counting   =     25538.10340363   -25638.67379537
  entropy T*S    EENTRO =        -0.00265765
  eigenvalues    EBANDS =     -5291.07379678
  atomic energy  EATOM  =     37525.52423787
  ---------------------------------------------------
  free energy    TOTEN  =      -283.98929393 eV

  energy without entropy =     -283.98663628  energy(sigma->0) =     -283.98796510


--------------------------------------------------------------------------------------------------------




----------------------------------------- Iteration    1(  17)  ---------------------------------------


    POTLOK:  VPU time    1.70: CPU time    1.70
    SETDIJ:  VPU time    0.08: CPU time    0.08
    EDDAV :  VPU time 4117.12: CPU time 4125.17
    DOS   :  VPU time    0.00: CPU time   -0.00
    CHARGE:  VPU time  220.77: CPU time  221.15
    MIXING:  VPU time    0.06: CPU time    0.06
    ------------------------------------------
      LOOP:  VPU time 4340.07: CPU time 4348.51

 eigenvalue-minimisations  : 67136
 total energy-change (2. order) : 0.4250061E-04  (-0.4618641E-05)
 number of electron  360.0000011 magnetization 
 augmentation part   169.5464576 magnetization 

 Broyden mixing:
[...]
     97     -27.0320      2.00000
     98     -27.0257      2.00000
     99     -27.0255      2.00000
    100     -27.0233      2.00000
    101     -27.0097      2.00000
    102     -27.0095      2.00000
    103     -26.9955      2.00000
    104     -26.9954      2.00000
    105     -26.9825      2.00000
    106     -26.9733      2.00000
    107     -26.9663      2.00000
    108     -26.9556      2.00000
    109       0.1744      2.00000
    110       0.5579      2.00000
    111       1.6633      2.00000
    112       1.6637      2.00000
    113       1.9497      2.00000
    114       1.9501      2.00000
    115       2.5313      2.00000
    116       2.5315      2.00000
    117       2.7107      2.00000
    118       2.7108      2.00000
    119       2.7526      2.00000
    120       2.9827      2.00000
    121       2.9830      2.00000
    122       3.0224      2.00000
    123       3.0225      2.00000
    124       3.0920      2.00000
    125       3.6931      2.00000
    126       3.6933      2.00000
    127       3.6937      2.00000
    128       3.6941      2.00000
    129       3.8345      2.00000
    130       3.8353      2.00000
    131       3.8377      2.00000
    132       3.8384      2.00000
    133       3.9347      2.00000
    134       3.9348      2.00000
    135       4.0246      2.00000
    136       4.0251      2.00000
    137       4.0728      2.00000
    138       4.0736      2.00000
    139       4.0961      2.00000
    140       4.1220      2.00000
    141       4.1537      2.00000
    142       4.1600      2.00000
    143       4.3445      2.00000
    144       4.3796      2.00000
    145       4.4098      2.00000
    146       4.4102      2.00000
    147       4.4635      2.00000
    148       4.4639      2.00000
    149       4.5689      2.00000
    150       4.5750      2.00000
    151       4.6124      2.00000
    152       4.6126      2.00000
    153       4.6495      2.00000
    154       4.6500      2.00000
    155       4.6601      2.00000
    156       4.6605      2.00000
    157       4.6742      2.00000
    158       4.6965      2.00000
    159       4.7601      2.00000
    160       4.7610      2.00000
    161       4.7615      2.00000
    162       4.7931      2.00000
    163       4.8679      2.00000
    164       5.0107      2.00000
    165       5.0527      2.00000
    166       5.0535      2.00000
    167       5.1247      2.00000
    168       5.1259      2.00000
    169       5.1937      2.00000
    170       5.1952      2.00000
    171       5.2924      2.00000
    172       5.2939      2.00000
    173       5.3961      2.00000
    174       5.3970      2.00000
    175       5.4805      2.00000
    176       5.4814      2.00000
    177       5.5612      2.00000
    178       5.6896      2.00000
    179       5.7125      2.00000
    180       5.7384      2.00000
    181       5.8537      0.00000
    182       5.8764      0.00000
    183       5.9312      0.00000
    184       5.9334      0.00000
    185       5.9617      0.00000
    186       6.0331      0.00000
    187       6.0345      0.00000
    188       6.0651      0.00000
    189       6.0654      0.00000
    190       6.0773      0.00000
    191       6.1635      0.00000
    192       6.1642      0.00000
    193       6.1967      0.00000
    194       6.2010      0.00000
    195       6.2021      0.00000
    196       6.2216      0.00000
    197       6.2280      0.00000
    198       6.3726      0.00000
    199       6.3730      0.00000
    200       6.3997      0.00000
    201       6.4002      0.00000
    202       6.4867      0.00000
    203       6.5142      0.00000
    204       6.5149      0.00000
    205       6.5290      0.00000
    206       6.5624      0.00000
    207       6.5632      0.00000
    208       6.5842      0.00000
    209       6.6315      0.00000
    210       6.6325      0.00000
    211       6.6369      0.00000
    212       6.6376      0.00000
    213       6.6847      0.00000
    214       6.6866      0.00000
    215       6.7109      0.00000
    216       6.7199      0.00000


--------------------------------------------------------------------------------------------------------


 soft charge-density along one line, spin component           1
         0         1         2         3         4         5         6         7         8         9
 total charge-density along one line
 
 pseudopotential strength for first ion, spin component:           1
-29.113   0.000  -0.000  13.035  -0.000   0.000   0.001   0.001
  0.000 -29.164  -0.000  -0.000  13.073   0.000   0.000  -0.000
 -0.000  -0.000 -29.113   0.000   0.000  13.034   0.004   0.000
 13.035  -0.000   0.000  -0.889   0.000  -0.000  -0.001  -0.001
 -0.000  13.073   0.000   0.000  -0.913  -0.000  -0.000   0.000
  0.000   0.000  13.034  -0.000  -0.000  -0.888  -0.002  -0.000
  0.001   0.000   0.004  -0.001  -0.000  -0.002  -2.940  -0.000
  0.001  -0.000   0.000  -0.001   0.000  -0.000  -0.000  -2.965
  0.000   0.001  -0.001  -0.000  -0.001   0.001  -0.000   0.000
  0.000   0.001   0.001  -0.000  -0.001  -0.001  -0.000  -0.000
  0.005  -0.000   0.001  -0.003   0.000  -0.001  -0.000  -0.000
  0.000   0.000   0.001  -0.000  -0.000  -0.001   0.512  -0.000
  0.000  -0.000   0.000  -0.000   0.000  -0.000  -0.000   0.507
  0.000   0.000  -0.000  -0.000  -0.000   0.000   0.000   0.000
  0.000   0.000   0.000  -0.000  -0.000  -0.000  -0.000  -0.000
  0.001  -0.000   0.000  -0.001   0.000  -0.000  -0.000  -0.000
  0.000  -0.000  -0.001  -0.000   0.000   0.000   0.000  -0.000
 -0.000   0.000   0.000   0.000  -0.000  -0.000  -0.000   0.000
 total augmentation occupancy for first ion, spin component:           1
  1.976  -0.000  -0.000   0.002  -0.000   0.000  -0.000  -0.000  -0.000   0.000  -0.016   0.000   0.000  -0.000   0.000   0.006
 -0.000   1.975   0.000  -0.000  -0.000  -0.000   0.000   0.000  -0.000  -0.000  -0.000   0.000   0.000   0.000   0.000  -0.000
 -0.000   0.000   1.976   0.000   0.000   0.002  -0.016   0.000   0.000  -0.000  -0.000   0.006   0.000  -0.000   0.000   0.000
  0.002  -0.000   0.000   0.184  -0.000   0.001  -0.001  -0.001  -0.000   0.000  -0.068   0.001   0.001   0.000  -0.000   0.019
 -0.000  -0.000   0.000  -0.000   0.171  -0.000   0.000  -0.000  -0.001  -0.000  -0.000  -0.000  -0.000   0.001   0.001   0.000
  0.000  -0.000   0.002   0.001  -0.000   0.184  -0.068   0.000   0.001  -0.001  -0.001   0.019  -0.000  -0.000   0.001   0.001
 -0.000   0.000  -0.016  -0.001   0.000  -0.068   0.592   0.000   0.001  -0.000  -0.001  -0.265  -0.000   0.001   0.000   0.001
 -0.000   0.000   0.000  -0.001  -0.000   0.000   0.000   0.471   0.000  -0.001  -0.000  -0.000  -0.235  -0.000   0.001   0.000
 -0.000  -0.000   0.000  -0.000  -0.001   0.001   0.001   0.000   0.640  -0.000  -0.000   0.001  -0.000  -0.273   0.000  -0.000
  0.000  -0.000  -0.000   0.000  -0.000  -0.001  -0.000  -0.001  -0.000   0.473   0.000   0.000   0.001   0.000  -0.237  -0.000
 -0.016  -0.000  -0.000  -0.068  -0.000  -0.001  -0.001  -0.000  -0.000   0.000   0.592   0.001   0.000  -0.000  -0.000  -0.264
  0.000   0.000   0.006   0.001  -0.000   0.019  -0.265  -0.000   0.001   0.000   0.001   0.138   0.000  -0.001  -0.000  -0.001
  0.000   0.000   0.000   0.001  -0.000  -0.000  -0.000  -0.235  -0.000   0.001   0.000   0.000   0.133   0.000  -0.001  -0.000
 -0.000   0.000  -0.000   0.000   0.001  -0.000   0.001  -0.000  -0.273   0.000  -0.000  -0.001   0.000   0.136  -0.000   0.000
  0.000   0.000   0.000  -0.000   0.001   0.001   0.000   0.001   0.000  -0.237  -0.000  -0.000  -0.001  -0.000   0.134   0.000
  0.006  -0.000   0.000   0.019   0.000   0.001   0.001   0.000  -0.000  -0.000  -0.264  -0.001  -0.000   0.000   0.000   0.137
 -0.000  -0.001  -0.001  -0.001  -0.002  -0.000   0.000   0.000   0.037  -0.000   0.001  -0.000  -0.000  -0.018   0.000  -0.000
  0.000  -0.001  -0.001  -0.000   0.000   0.000  -0.000  -0.000   0.012   0.000  -0.000   0.000   0.000  -0.005  -0.000   0.000


------------------------ aborting loop because EDIFF is reached ----------------------------------------




--------------------------------------------------------------------------------------------------------


    CHARGE:  VPU time  224.34: CPU time  224.58
    FORLOC:  VPU time    0.29: CPU time    0.29
    FORNL :  VPU time  559.83: CPU time  560.24
    STRESS:  VPU time 2499.30: CPU time 2501.74
    FORCOR:  VPU time    1.31: CPU time    1.31
    FORHAR:  VPU time    0.48: CPU time    0.48
    MIXING:  VPU time    0.05: CPU time    0.05


--------------------------------------------------------------------------------------------------------



  FREE ENERGIE OF THE ION-ELECTRON SYSTEM (eV)
  ---------------------------------------------------
  free  energy   TOTEN  =      -283.989225 eV

  energy  without entropy=     -283.986564  energy(sigma->0) =     -283.987895
 

  FORCE on cell =-STRESS in cart. coord.  units (eV/reduce length):
  Direction    X        Y        Z        XY       YZ       ZX
  --------------------------------------------------------------------------------------
  Alpha Z   2225.99   2225.99   2225.99
  Ewald    -9677.77  -9691.14  -9388.88    -11.14      0.00     -0.01
  Hartree   2340.32   2334.12   2456.78     -5.16      0.00     -0.01
  E(xc)    -1693.35  -1693.35  -1692.95     -0.00      0.00     -0.00
  Local     2475.32   2494.78   2119.79     16.20     -0.00      0.02
  n-local   -864.19   -863.96   -847.95      0.21      0.00     -0.00
  augment   1840.40   1840.11   1814.50     -0.26      0.00     -0.00
  Kinetic   3347.96   3347.28   3303.58     -0.58      0.00     -0.00
  -------------------------------------------------------------------------------------
  Total       -5.31     -6.17     -9.15     -0.72      0.00     -0.00
  in kB      -13.40    -15.56    -23.08     -1.82      0.00     -0.00
  external pressure =      -17.35 kB  Pullay stress =        0.00 kB


 VOLUME and BASIS-vectors are now :
 -----------------------------------------------------------------------------
  energy-cutoff  :      500.00
  volume of cell :      634.86
      direct lattice vectors                 reciprocal lattice vectors
     8.820667100  0.024765440  0.000000000     0.113187820  0.064925977  0.000000000
    -4.388885871  7.651304610  0.000000000    -0.000366362  0.130486516  0.000000000
     0.000000000  0.000000000  9.391623956     0.000000000  0.000000000  0.106477858

  length of vectors
     8.820701866  8.820701867  9.391623956     0.130487030  0.130487030  0.106477858


 FORCES acting on ions
    electron-ion (+dipol)            ewald-force                    non-local-force                 convergence-correction
 -----------------------------------------------------------------------------------------------
   -.204E+01 -.934E-01 -.248E+01   0.212E+01 0.686E-01 0.252E+01   -.360E-01 0.235E-01 -.140E-02   -.895E-04 -.352E-06 -.377E-04
   0.104E+01 -.815E-01 -.404E+00   -.101E+01 0.624E-01 0.402E+00   -.466E-01 0.223E-01 -.274E-04   0.394E-04 0.901E-05 0.110E-04
   0.105E+01 -.914E-01 -.410E+00   -.101E+01 0.624E-01 0.407E+00   -.467E-01 0.248E-01 0.234E-03   0.497E-04 -.144E-04 -.274E-05
   0.132E+00 -.607E+00 -.409E+00   -.907E-01 0.586E+00 0.406E+00   -.435E-01 0.277E-01 0.233E-03   -.815E-05 -.456E-04 0.609E-05
   0.145E+00 0.427E+00 -.400E+00   -.103E+00 -.454E+00 0.397E+00   -.438E-01 0.192E-01 0.181E-03   -.162E-04 0.216E-04 0.914E-05
   0.320E+00 -.899E-01 -.145E+00   -.280E+00 0.658E-01 0.147E+00   -.412E-01 0.236E-01 -.380E-02   0.241E-04 -.826E-05 0.317E-04
   0.133E+00 -.613E+00 -.406E+00   -.944E-01 0.588E+00 0.403E+00   -.405E-01 0.249E-01 -.115E-04   -.241E-04 -.234E-04 0.104E-04
   0.319E+00 -.888E-01 -.146E+00   -.280E+00 0.648E-01 0.147E+00   -.407E-01 0.237E-01 -.184E-02   0.459E-04 0.955E-05 0.220E-04
   0.138E+00 0.430E+00 -.402E+00   -.990E-01 -.452E+00 0.400E+00   -.406E-01 0.223E-01 0.199E-03   -.225E-04 0.527E-04 0.276E-06
   0.466E-01 -.896E-01 0.429E+00   -.235E-02 0.656E-01 -.443E+00   -.411E-01 0.237E-01 0.258E-03   -.362E-04 -.197E-05 0.371E-04
   0.207E+00 -.904E-01 0.196E+00   -.167E+00 0.648E-01 -.198E+00   -.408E-01 0.241E-01 0.493E-03   0.947E-05 0.596E-05 -.112E-04
   0.207E+00 -.874E-01 0.197E+00   -.167E+00 0.648E-01 -.199E+00   -.407E-01 0.229E-01 0.612E-03   0.261E-04 -.870E-05 0.266E-05
   0.133E+00 -.133E+00 0.197E+00   -.921E-01 0.108E+00 -.198E+00   -.408E-01 0.240E-01 0.597E-03   0.603E-06 -.156E-04 -.593E-05
   0.135E+00 -.460E-01 0.195E+00   -.936E-01 0.227E-01 -.196E+00   -.406E-01 0.229E-01 0.726E-03   -.667E-05 0.758E-06 -.928E-05
   0.196E+00 -.892E-01 0.126E+00   -.153E+00 0.650E-01 -.122E+00   -.417E-01 0.237E-01 -.323E-02   0.566E-05 0.911E-06 -.318E-04
   0.133E+00 -.130E+00 0.197E+00   -.920E-01 0.108E+00 -.198E+00   -.407E-01 0.231E-01 0.492E-03   -.115E-04 -.891E-05 -.106E-04
   0.196E+00 -.890E-01 0.122E+00   -.153E+00 0.648E-01 -.122E+00   -.414E-01 0.239E-01 0.992E-04   0.115E-04 0.212E-05 -.222E-04
   0.135E+00 -.485E-01 0.196E+00   -.936E-01 0.224E-01 -.197E+00   -.408E-01 0.241E-01 0.732E-03   -.582E-06 0.263E-04 -.233E-06
   0.317E+00 -.379E+00 0.959E+00   -.365E+00 0.407E+00 -.958E+00   0.370E-01 -.218E-01 -.103E-01   -.761E-05 -.959E-05 0.170E-04
   0.549E-01 0.710E-01 0.191E-01   -.974E-01 -.463E-01 -.194E-01   0.417E-01 -.242E-01 0.127E-02   0.478E-04 0.370E-05 -.101E-04
   -.692E+00 -.267E-01 0.180E-01   0.650E+00 0.508E-01 -.197E-01   0.425E-01 -.224E-01 0.395E-02   -.397E-04 -.357E-05 -.288E-04
   -.490E+00 0.674E+00 0.499E+00   0.449E+00 -.654E+00 -.500E+00   0.402E-01 -.266E-01 -.286E-02   -.299E-04 0.146E-04 -.355E-05
   0.118E+00 0.278E+00 0.169E+00   -.162E+00 -.255E+00 -.174E+00   0.457E-01 -.215E-01 0.709E-02   0.305E-04 0.238E-04 0.118E-04
   -.156E+00 0.559E-01 -.783E-01   0.113E+00 -.308E-01 0.796E-01   0.432E-01 -.240E-01 -.118E-02   -.454E-06 -.134E-04 -.222E-04
   -.113E+00 -.535E-02 0.350E-01   0.704E-01 0.295E-01 -.364E-01   0.410E-01 -.239E-01 0.215E-02   0.820E-05 -.223E-04 0.315E-05
   -.143E+00 0.204E+00 0.508E-02   0.101E+00 -.180E+00 -.445E-02   0.402E-01 -.227E-01 0.124E-03   0.104E-04 0.232E-04 -.871E-05
   -.211E+00 -.666E-01 0.461E-01   0.169E+00 0.909E-01 -.479E-01   0.423E-01 -.249E-01 0.294E-02   -.182E-04 -.168E-04 0.555E-07
   -.687E+00 0.198E+00 0.855E-02   0.646E+00 -.174E+00 -.976E-02   0.425E-01 -.249E-01 0.373E-02   -.564E-04 0.114E-04 -.165E-04
   0.573E-01 0.110E+00 0.199E-01   -.999E-01 -.866E-01 -.204E-01   0.417E-01 -.234E-01 0.128E-02   0.636E-04 0.144E-05 0.101E-04
   0.314E+00 0.569E+00 0.973E+00   -.364E+00 -.549E+00 -.973E+00   0.377E-01 -.254E-01 -.980E-02   -.697E-05 0.215E-04 0.290E-04
   -.505E+00 -.491E+00 0.485E+00   0.464E+00 0.520E+00 -.485E+00   0.404E-01 -.208E-01 -.307E-02   -.411E-04 -.359E-04 0.381E-05
   -.149E+00 0.123E+00 -.771E-01   0.105E+00 -.999E-01 0.787E-01   0.433E-01 -.229E-01 -.132E-02   -.478E-05 0.265E-05 -.115E-04
   0.124E+00 -.106E+00 0.177E+00   -.167E+00 0.131E+00 -.181E+00   0.451E-01 -.251E-01 0.640E-02   0.466E-04 -.471E-04 0.221E-04
   -.146E+00 -.265E-01 0.391E-02   0.105E+00 0.512E-01 -.340E-02   0.403E-01 -.243E-01 0.368E-03   0.119E-04 -.249E-04 -.304E-05
   -.111E+00 0.186E+00 0.335E-01   0.684E-01 -.162E+00 -.345E-01   0.411E-01 -.232E-01 0.189E-02   0.111E-04 0.356E-04 0.868E-05
   -.210E+00 0.244E+00 0.469E-01   0.168E+00 -.220E+00 -.485E-01   0.424E-01 -.222E-01 0.283E-02   -.229E-04 0.345E-04 -.435E-07
 -----------------------------------------------------------------------------------------------
   0.834E-04 -.155E-03 -.468E-04   -.648E-13 0.642E-12 0.221E-12   -.356E-04 0.135E-03 0.413E-04   -.103E-05 0.667E-06 -.103E-06
 
 
 POSITION                                       TOTAL-FORCE (eV/Angst)
 -----------------------------------------------------------------------------------
     -0.00694      1.70583      1.16666         0.043574     -0.001259      0.042698
      2.94013      1.71410      1.17395        -0.007654      0.003211     -0.002453
      5.88035      1.72236      1.17395        -0.007752     -0.004295     -0.002445
     -1.46305      4.25628      1.17395        -0.002004      0.006363     -0.002453
      1.47717      4.26454      1.17395        -0.001649     -0.007650     -0.002317
      4.41739      4.27279      1.17395        -0.001024     -0.000498     -0.001564
     -2.92602      6.80672      1.17395        -0.001962     -0.000844     -0.002461
      0.01421      6.81497      1.17395        -0.000892     -0.000317     -0.001567
      2.95443      6.82323      1.17395        -0.001775      0.000149     -0.002317
     -0.00009      1.70585      5.86976         0.003109     -0.000368     -0.013682
      2.94013      1.71410      5.86976        -0.000171     -0.001479     -0.000557
      5.88035      1.72236      5.86976        -0.000133      0.000340     -0.000543
     -1.46305      4.25628      5.86976         0.000539     -0.001229     -0.000552
      1.47717      4.26454      5.86976         0.000818     -0.000345     -0.000519
      4.41739      4.27279      5.86976         0.001667     -0.000432      0.000522
     -2.92602      6.80672      5.86976         0.000566      0.000881     -0.000556
      0.01421      6.81497      5.86976         0.001789     -0.000225      0.000519
      2.95443      6.82323      5.86976         0.000734     -0.002052     -0.000512
      1.47735      0.85284      3.52186        -0.011506      0.006432     -0.009013
      4.41757      0.86110      3.52186        -0.000738      0.000440      0.000913
      7.35780      0.86935      3.52186         0.000752      0.001667      0.002217
      0.01439      3.40328      3.52186        -0.001338     -0.006496     -0.003472
      2.95461      3.41153      3.52186         0.001484      0.001395      0.002118
      5.89483      3.41979      3.52186        -0.000310      0.001091      0.000054
     -1.44857      5.95371      3.52186        -0.001268      0.000221      0.000803
      1.49165      5.96197      3.52186        -0.001245      0.000899      0.000746
      4.43187      5.97022      3.52186         0.000296     -0.000560      0.001182
      1.47735      0.85284      8.21767         0.000835     -0.000671      0.002506
      4.41757      0.86110      8.21767        -0.000879      0.000300      0.000781
      7.35780      0.86935      8.21767        -0.011769     -0.005581     -0.009603
      0.01439      3.40328      8.21767        -0.001305      0.007795     -0.003630
      2.95461      3.41153      8.21767        -0.000543      0.000248      0.000208
      5.89483      3.41979      8.21767         0.001800     -0.000129      0.002028
     -1.44857      5.95371      8.21767        -0.001209      0.000408      0.000877
      1.49165      5.96197      8.21767        -0.001109      0.000815      0.000888
      4.43187      5.97022      8.21767         0.000271      0.001772      0.001156
 -----------------------------------------------------------------------------------
    total drift:                                0.000047     -0.000019     -0.000006


--------------------------------------------------------------------------------------------------------



 mean value of Nose-termostat <S>:     1.000 mean value of <T> :     0.000
 mean temperature <T/S>/<1/S>  :     0.000

     LOOP+:  VPU time********: CPU time********
  
  
 General timing and accounting informations for this job:
 ========================================================
  
                  Total CPU time used (sec):   117738.100
                            User time (sec):   113520.173
                          System time (sec):     4217.927
                         Elapsed time (sec):   118085.384
  
                   Maximum memory used (kb):    11813624.
                   Average memory used (kb):           0.
  
                          Minor page faults:      2465071
                          Major page faults:            0
                 Voluntary context switches:         1221
