nqpoint: 306    
npath: 6      
segment_nqpoint:
- 51
- 51
- 51
- 51
- 51
- 51
reciprocal_lattice:
- [  -0.24523752,   0.24523752,   0.24523752 ] # a*
- [   0.24523752,  -0.24523752,   0.24523752 ] # b*
- [   0.24523752,   0.24523752,  -0.24523752 ] # c*
natom: 1      
lattice:
- [     0.000000000000000,     2.038839716684772,     2.038839716684772 ] # a
- [     2.038839716684772,     0.000000000000000,     2.038839716684772 ] # b
- [     2.038839716684772,     2.038839716684772,     0.000000000000000 ] # c
points:
- symbol: Al # 1
  coordinates: [  0.000000000000000,  0.000000000000000,  0.000000000000000 ]
  mass: 26.981539
supercell_matrix:
- [   -4,    4,    4 ]
- [    4,   -4,    4 ]
- [    4,    4,   -4 ]

phonon:
- q-position: [    0.0000000,    0.0000000,    0.0000000 ]
  distance:    0.0000000
  label: '\Gamma'
  band:
  - # 1
    frequency:   -0.0042563013
  - # 2
    frequency:   -0.0042563013
  - # 3
    frequency:   -0.0042563013

- q-position: [    0.0000000,    0.0100000,    0.0100000 ]
  distance:    0.0049048
  band:
  - # 1
    frequency:    0.1642888657
  - # 2
    frequency:    0.1642888657
  - # 3
    frequency:    0.2972839521

- q-position: [    0.0000000,    0.0200000,    0.0200000 ]
  distance:    0.0098095
  band:
  - # 1
    frequency:    0.3285305124
  - # 2
    frequency:    0.3285305124
  - # 3
    frequency:    0.5942830255

- q-position: [    0.0000000,    0.0300000,    0.0300000 ]
  distance:    0.0147143
  band:
  - # 1
    frequency:    0.4924938129
  - # 2
    frequency:    0.4924938129
  - # 3
    frequency:    0.8906114474

- q-position: [    0.0000000,    0.0400000,    0.0400000 ]
  distance:    0.0196190
  band:
  - # 1
    frequency:    0.6560621475
  - # 2
    frequency:    0.6560621475
  - # 3
    frequency:    1.1859482036

- q-position: [    0.0000000,    0.0500000,    0.0500000 ]
  distance:    0.0245238
  band:
  - # 1
    frequency:    0.8191073738
  - # 2
    frequency:    0.8191073738
  - # 3
    frequency:    1.4799681180

- q-position: [    0.0000000,    0.0600000,    0.0600000 ]
  distance:    0.0294285
  band:
  - # 1
    frequency:    0.9814988672
  - # 2
    frequency:    0.9814988672
  - # 3
    frequency:    1.7723475600

- q-position: [    0.0000000,    0.0700000,    0.0700000 ]
  distance:    0.0343333
  band:
  - # 1
    frequency:    1.1431046941
  - # 2
    frequency:    1.1431046941
  - # 3
    frequency:    2.0627657845

- q-position: [    0.0000000,    0.0800000,    0.0800000 ]
  distance:    0.0392380
  band:
  - # 1
    frequency:    1.3037918165
  - # 2
    frequency:    1.3037918165
  - # 3
    frequency:    2.3509057130

- q-position: [    0.0000000,    0.0900000,    0.0900000 ]
  distance:    0.0441428
  band:
  - # 1
    frequency:    1.4634260943
  - # 2
    frequency:    1.4634260943
  - # 3
    frequency:    2.6364545744

- q-position: [    0.0000000,    0.1000000,    0.1000000 ]
  distance:    0.0490475
  band:
  - # 1
    frequency:    1.6218722418
  - # 2
    frequency:    1.6218722418
  - # 3
    frequency:    2.9191044875

- q-position: [    0.0000000,    0.1100000,    0.1100000 ]
  distance:    0.0539523
  band:
  - # 1
    frequency:    1.7789937823
  - # 2
    frequency:    1.7789937823
  - # 3
    frequency:    3.1985530055

- q-position: [    0.0000000,    0.1200000,    0.1200000 ]
  distance:    0.0588570
  band:
  - # 1
    frequency:    1.9346530159
  - # 2
    frequency:    1.9346530159
  - # 3
    frequency:    3.4745036284

- q-position: [    0.0000000,    0.1300000,    0.1300000 ]
  distance:    0.0637618
  band:
  - # 1
    frequency:    2.0887110079
  - # 2
    frequency:    2.0887110079
  - # 3
    frequency:    3.7466662826

- q-position: [    0.0000000,    0.1400000,    0.1400000 ]
  distance:    0.0686665
  band:
  - # 1
    frequency:    2.2410276024
  - # 2
    frequency:    2.2410276024
  - # 3
    frequency:    4.0147577687

- q-position: [    0.0000000,    0.1500000,    0.1500000 ]
  distance:    0.0735713
  band:
  - # 1
    frequency:    2.3914614606
  - # 2
    frequency:    2.3914614606
  - # 3
    frequency:    4.2785021739

- q-position: [    0.0000000,    0.1600000,    0.1600000 ]
  distance:    0.0784760
  band:
  - # 1
    frequency:    2.5398701281
  - # 2
    frequency:    2.5398701281
  - # 3
    frequency:    4.5376312502

- q-position: [    0.0000000,    0.1700000,    0.1700000 ]
  distance:    0.0833808
  band:
  - # 1
    frequency:    2.6861101302
  - # 2
    frequency:    2.6861101302
  - # 3
    frequency:    4.7918847545

- q-position: [    0.0000000,    0.1800000,    0.1800000 ]
  distance:    0.0882855
  band:
  - # 1
    frequency:    2.8300370952
  - # 2
    frequency:    2.8300370952
  - # 3
    frequency:    5.0410107521

- q-position: [    0.0000000,    0.1900000,    0.1900000 ]
  distance:    0.0931903
  band:
  - # 1
    frequency:    2.9715059069
  - # 2
    frequency:    2.9715059069
  - # 3
    frequency:    5.2847658808

- q-position: [    0.0000000,    0.2000000,    0.2000000 ]
  distance:    0.0980950
  band:
  - # 1
    frequency:    3.1103708853
  - # 2
    frequency:    3.1103708853
  - # 3
    frequency:    5.5229155767

- q-position: [    0.0000000,    0.2100000,    0.2100000 ]
  distance:    0.1029998
  band:
  - # 1
    frequency:    3.2464859940
  - # 2
    frequency:    3.2464859940
  - # 3
    frequency:    5.7552342596

- q-position: [    0.0000000,    0.2200000,    0.2200000 ]
  distance:    0.1079045
  band:
  - # 1
    frequency:    3.3797050747
  - # 2
    frequency:    3.3797050747
  - # 3
    frequency:    5.9815054804

- q-position: [    0.0000000,    0.2300000,    0.2300000 ]
  distance:    0.1128093
  band:
  - # 1
    frequency:    3.5098821068
  - # 2
    frequency:    3.5098821068
  - # 3
    frequency:    6.2015220284

- q-position: [    0.0000000,    0.2400000,    0.2400000 ]
  distance:    0.1177140
  band:
  - # 1
    frequency:    3.6368714898
  - # 2
    frequency:    3.6368714898
  - # 3
    frequency:    6.4150860012

- q-position: [    0.0000000,    0.2500000,    0.2500000 ]
  distance:    0.1226188
  band:
  - # 1
    frequency:    3.7605283488
  - # 2
    frequency:    3.7605283488
  - # 3
    frequency:    6.6220088363

- q-position: [    0.0000000,    0.2600000,    0.2600000 ]
  distance:    0.1275235
  band:
  - # 1
    frequency:    3.8807088589
  - # 2
    frequency:    3.8807088589
  - # 3
    frequency:    6.8221113078

- q-position: [    0.0000000,    0.2700000,    0.2700000 ]
  distance:    0.1324283
  band:
  - # 1
    frequency:    3.9972705880
  - # 2
    frequency:    3.9972705880
  - # 3
    frequency:    7.0152234874

- q-position: [    0.0000000,    0.2800000,    0.2800000 ]
  distance:    0.1373330
  band:
  - # 1
    frequency:    4.1100728549
  - # 2
    frequency:    4.1100728549
  - # 3
    frequency:    7.2011846731

- q-position: [    0.0000000,    0.2900000,    0.2900000 ]
  distance:    0.1422378
  band:
  - # 1
    frequency:    4.2189771005
  - # 2
    frequency:    4.2189771005
  - # 3
    frequency:    7.3798432873

- q-position: [    0.0000000,    0.3000000,    0.3000000 ]
  distance:    0.1471425
  band:
  - # 1
    frequency:    4.3238472696
  - # 2
    frequency:    4.3238472696
  - # 3
    frequency:    7.5510567460

- q-position: [    0.0000000,    0.3100000,    0.3100000 ]
  distance:    0.1520473
  band:
  - # 1
    frequency:    4.4245502006
  - # 2
    frequency:    4.4245502006
  - # 3
    frequency:    7.7146913023

- q-position: [    0.0000000,    0.3200000,    0.3200000 ]
  distance:    0.1569520
  band:
  - # 1
    frequency:    4.5209560206
  - # 2
    frequency:    4.5209560206
  - # 3
    frequency:    7.8706218669

- q-position: [    0.0000000,    0.3300000,    0.3300000 ]
  distance:    0.1618568
  band:
  - # 1
    frequency:    4.6129385429
  - # 2
    frequency:    4.6129385429
  - # 3
    frequency:    8.0187318079

- q-position: [    0.0000000,    0.3400000,    0.3400000 ]
  distance:    0.1667615
  band:
  - # 1
    frequency:    4.7003756644
  - # 2
    frequency:    4.7003756644
  - # 3
    frequency:    8.1589127340

- q-position: [    0.0000000,    0.3500000,    0.3500000 ]
  distance:    0.1716663
  band:
  - # 1
    frequency:    4.7831497599
  - # 2
    frequency:    4.7831497599
  - # 3
    frequency:    8.2910642628

- q-position: [    0.0000000,    0.3600000,    0.3600000 ]
  distance:    0.1765710
  band:
  - # 1
    frequency:    4.8611480708
  - # 2
    frequency:    4.8611480708
  - # 3
    frequency:    8.4150937792

- q-position: [    0.0000000,    0.3700000,    0.3700000 ]
  distance:    0.1814758
  band:
  - # 1
    frequency:    4.9342630859
  - # 2
    frequency:    4.9342630859
  - # 3
    frequency:    8.5309161863

- q-position: [    0.0000000,    0.3800000,    0.3800000 ]
  distance:    0.1863805
  band:
  - # 1
    frequency:    5.0023929108
  - # 2
    frequency:    5.0023929108
  - # 3
    frequency:    8.6384536517

- q-position: [    0.0000000,    0.3900000,    0.3900000 ]
  distance:    0.1912853
  band:
  - # 1
    frequency:    5.0654416237
  - # 2
    frequency:    5.0654416237
  - # 3
    frequency:    8.7376353542

- q-position: [    0.0000000,    0.4000000,    0.4000000 ]
  distance:    0.1961900
  band:
  - # 1
    frequency:    5.1233196162
  - # 2
    frequency:    5.1233196162
  - # 3
    frequency:    8.8283972325

- q-position: [    0.0000000,    0.4100000,    0.4100000 ]
  distance:    0.2010948
  band:
  - # 1
    frequency:    5.1759439152
  - # 2
    frequency:    5.1759439152
  - # 3
    frequency:    8.9106817404

- q-position: [    0.0000000,    0.4200000,    0.4200000 ]
  distance:    0.2059995
  band:
  - # 1
    frequency:    5.2232384847
  - # 2
    frequency:    5.2232384847
  - # 3
    frequency:    8.9844376110

- q-position: [    0.0000000,    0.4300000,    0.4300000 ]
  distance:    0.2109043
  band:
  - # 1
    frequency:    5.2651345054
  - # 2
    frequency:    5.2651345054
  - # 3
    frequency:    9.0496196335

- q-position: [    0.0000000,    0.4400000,    0.4400000 ]
  distance:    0.2158090
  band:
  - # 1
    frequency:    5.3015706298
  - # 2
    frequency:    5.3015706298
  - # 3
    frequency:    9.1061884446

- q-position: [    0.0000000,    0.4500000,    0.4500000 ]
  distance:    0.2207138
  band:
  - # 1
    frequency:    5.3324932121
  - # 2
    frequency:    5.3324932121
  - # 3
    frequency:    9.1541103384

- q-position: [    0.0000000,    0.4600000,    0.4600000 ]
  distance:    0.2256185
  band:
  - # 1
    frequency:    5.3578565095
  - # 2
    frequency:    5.3578565095
  - # 3
    frequency:    9.1933570961

- q-position: [    0.0000000,    0.4700000,    0.4700000 ]
  distance:    0.2305233
  band:
  - # 1
    frequency:    5.3776228559
  - # 2
    frequency:    5.3776228559
  - # 3
    frequency:    9.2239058380

- q-position: [    0.0000000,    0.4800000,    0.4800000 ]
  distance:    0.2354280
  band:
  - # 1
    frequency:    5.3917628051
  - # 2
    frequency:    5.3917628051
  - # 3
    frequency:    9.2457388999

- q-position: [    0.0000000,    0.4900000,    0.4900000 ]
  distance:    0.2403328
  band:
  - # 1
    frequency:    5.4002552429
  - # 2
    frequency:    5.4002552429
  - # 3
    frequency:    9.2588437356

- q-position: [    0.0000000,    0.5000000,    0.5000000 ]
  distance:    0.2452375
  label: 'X'
  band:
  - # 1
    frequency:    5.4030874686
  - # 2
    frequency:    5.4030874686
  - # 3
    frequency:    9.2632128458

- q-position: [    0.0000000,    0.5000000,    0.5000000 ]
  distance:    0.2452375
  label: 'X'
  band:
  - # 1
    frequency:    5.4030874686
  - # 2
    frequency:    5.4030874686
  - # 3
    frequency:    9.2632128458

- q-position: [    0.0050000,    0.5050000,    0.5000000 ]
  distance:    0.2476899
  band:
  - # 1
    frequency:    5.4037667705
  - # 2
    frequency:    5.4042257326
  - # 3
    frequency:    9.2623689373

- q-position: [    0.0100000,    0.5100000,    0.5000000 ]
  distance:    0.2501423
  band:
  - # 1
    frequency:    5.4058014845
  - # 2
    frequency:    5.4076384206
  - # 3
    frequency:    9.2598378497

- q-position: [    0.0150000,    0.5150000,    0.5000000 ]
  distance:    0.2525946
  band:
  - # 1
    frequency:    5.4091820575
  - # 2
    frequency:    5.4133192323
  - # 3
    frequency:    9.2556214963

- q-position: [    0.0200000,    0.5200000,    0.5000000 ]
  distance:    0.2550470
  band:
  - # 1
    frequency:    5.4138926424
  - # 2
    frequency:    5.4212577076
  - # 3
    frequency:    9.2497230647

- q-position: [    0.0250000,    0.5250000,    0.5000000 ]
  distance:    0.2574994
  band:
  - # 1
    frequency:    5.4199112097
  - # 2
    frequency:    5.4314392859
  - # 3
    frequency:    9.2421470148

- q-position: [    0.0300000,    0.5300000,    0.5000000 ]
  distance:    0.2599518
  band:
  - # 1
    frequency:    5.4272097006
  - # 2
    frequency:    5.4438453886
  - # 3
    frequency:    9.2328990760

- q-position: [    0.0350000,    0.5350000,    0.5000000 ]
  distance:    0.2624041
  band:
  - # 1
    frequency:    5.4357542203
  - # 2
    frequency:    5.4584535227
  - # 3
    frequency:    9.2219862438

- q-position: [    0.0400000,    0.5400000,    0.5000000 ]
  distance:    0.2648565
  band:
  - # 1
    frequency:    5.4455052691
  - # 2
    frequency:    5.4752374037
  - # 3
    frequency:    9.2094167756

- q-position: [    0.0450000,    0.5450000,    0.5000000 ]
  distance:    0.2673089
  band:
  - # 1
    frequency:    5.4564180071
  - # 2
    frequency:    5.4941670967
  - # 3
    frequency:    9.1952001854

- q-position: [    0.0500000,    0.5500000,    0.5000000 ]
  distance:    0.2697613
  band:
  - # 1
    frequency:    5.4684425499
  - # 2
    frequency:    5.5152091740
  - # 3
    frequency:    9.1793472384

- q-position: [    0.0550000,    0.5550000,    0.5000000 ]
  distance:    0.2722136
  band:
  - # 1
    frequency:    5.4815242909
  - # 2
    frequency:    5.5383268853
  - # 3
    frequency:    9.1618699446

- q-position: [    0.0600000,    0.5600000,    0.5000000 ]
  distance:    0.2746660
  band:
  - # 1
    frequency:    5.4956042469
  - # 2
    frequency:    5.5634803402
  - # 3
    frequency:    9.1427815512

- q-position: [    0.0650000,    0.5650000,    0.5000000 ]
  distance:    0.2771184
  band:
  - # 1
    frequency:    5.5106194220
  - # 2
    frequency:    5.5906266994
  - # 3
    frequency:    9.1220965356

- q-position: [    0.0700000,    0.5700000,    0.5000000 ]
  distance:    0.2795708
  band:
  - # 1
    frequency:    5.5265031865
  - # 2
    frequency:    5.6197203726
  - # 3
    frequency:    9.0998305960

- q-position: [    0.0750000,    0.5750000,    0.5000000 ]
  distance:    0.2820232
  band:
  - # 1
    frequency:    5.5431856667
  - # 2
    frequency:    5.6507132213
  - # 3
    frequency:    9.0760006433

- q-position: [    0.0800000,    0.5800000,    0.5000000 ]
  distance:    0.2844755
  band:
  - # 1
    frequency:    5.5605941410
  - # 2
    frequency:    5.6835547638
  - # 3
    frequency:    9.0506247906

- q-position: [    0.0850000,    0.5850000,    0.5000000 ]
  distance:    0.2869279
  band:
  - # 1
    frequency:    5.5786534398
  - # 2
    frequency:    5.7181923797
  - # 3
    frequency:    9.0237223438

- q-position: [    0.0900000,    0.5900000,    0.5000000 ]
  distance:    0.2893803
  band:
  - # 1
    frequency:    5.5972863445
  - # 2
    frequency:    5.7545715137
  - # 3
    frequency:    8.9953137901

- q-position: [    0.0950000,    0.5950000,    0.5000000 ]
  distance:    0.2918327
  band:
  - # 1
    frequency:    5.6164139836
  - # 2
    frequency:    5.7926358756
  - # 3
    frequency:    8.9654207873

- q-position: [    0.1000000,    0.6000000,    0.5000000 ]
  distance:    0.2942850
  band:
  - # 1
    frequency:    5.6359562222
  - # 2
    frequency:    5.8323276354
  - # 3
    frequency:    8.9340661522

- q-position: [    0.1050000,    0.6050000,    0.5000000 ]
  distance:    0.2967374
  band:
  - # 1
    frequency:    5.6558320433
  - # 2
    frequency:    5.8735876118
  - # 3
    frequency:    8.9012738478

- q-position: [    0.1100000,    0.6100000,    0.5000000 ]
  distance:    0.2991898
  band:
  - # 1
    frequency:    5.6759599179
  - # 2
    frequency:    5.9163554541
  - # 3
    frequency:    8.8670689716

- q-position: [    0.1150000,    0.6150000,    0.5000000 ]
  distance:    0.3016422
  band:
  - # 1
    frequency:    5.6962581624
  - # 2
    frequency:    5.9605698152
  - # 3
    frequency:    8.8314777425

- q-position: [    0.1200000,    0.6200000,    0.5000000 ]
  distance:    0.3040945
  band:
  - # 1
    frequency:    5.7166452827
  - # 2
    frequency:    6.0061685158
  - # 3
    frequency:    8.7945274874

- q-position: [    0.1250000,    0.6250000,    0.5000000 ]
  distance:    0.3065469
  band:
  - # 1
    frequency:    5.7370403021
  - # 2
    frequency:    6.0530886995
  - # 3
    frequency:    8.7562466284

- q-position: [    0.1300000,    0.6300000,    0.5000000 ]
  distance:    0.3089993
  band:
  - # 1
    frequency:    5.7573630743
  - # 2
    frequency:    6.1012669774
  - # 3
    frequency:    8.7166646687

- q-position: [    0.1350000,    0.6350000,    0.5000000 ]
  distance:    0.3114517
  band:
  - # 1
    frequency:    5.7775345784
  - # 2
    frequency:    6.1506395634
  - # 3
    frequency:    8.6758121791

- q-position: [    0.1400000,    0.6400000,    0.5000000 ]
  distance:    0.3139040
  band:
  - # 1
    frequency:    5.7974771985
  - # 2
    frequency:    6.2011423994
  - # 3
    frequency:    8.6337207842

- q-position: [    0.1450000,    0.6450000,    0.5000000 ]
  distance:    0.3163564
  band:
  - # 1
    frequency:    5.8171149855
  - # 2
    frequency:    6.2527112705
  - # 3
    frequency:    8.5904231482

- q-position: [    0.1500000,    0.6500000,    0.5000000 ]
  distance:    0.3188088
  band:
  - # 1
    frequency:    5.8363739015
  - # 2
    frequency:    6.3052819103
  - # 3
    frequency:    8.5459529613

- q-position: [    0.1550000,    0.6550000,    0.5000000 ]
  distance:    0.3212612
  band:
  - # 1
    frequency:    5.8551820485
  - # 2
    frequency:    6.3587900977
  - # 3
    frequency:    8.5003449257

- q-position: [    0.1600000,    0.6600000,    0.5000000 ]
  distance:    0.3237135
  band:
  - # 1
    frequency:    5.8734698803
  - # 2
    frequency:    6.4131717440
  - # 3
    frequency:    8.4536347412

- q-position: [    0.1650000,    0.6650000,    0.5000000 ]
  distance:    0.3261659
  band:
  - # 1
    frequency:    5.8911703978
  - # 2
    frequency:    6.4683629720
  - # 3
    frequency:    8.4058590922

- q-position: [    0.1700000,    0.6700000,    0.5000000 ]
  distance:    0.3286183
  band:
  - # 1
    frequency:    5.9082193304
  - # 2
    frequency:    6.5243001867
  - # 3
    frequency:    8.3570556336

- q-position: [    0.1750000,    0.6750000,    0.5000000 ]
  distance:    0.3310707
  band:
  - # 1
    frequency:    5.9245553016
  - # 2
    frequency:    6.5809201391
  - # 3
    frequency:    8.3072629776

- q-position: [    0.1800000,    0.6800000,    0.5000000 ]
  distance:    0.3335230
  band:
  - # 1
    frequency:    5.9401199809
  - # 2
    frequency:    6.6381599827
  - # 3
    frequency:    8.2565206803

- q-position: [    0.1850000,    0.6850000,    0.5000000 ]
  distance:    0.3359754
  band:
  - # 1
    frequency:    5.9548582219
  - # 2
    frequency:    6.6959573238
  - # 3
    frequency:    8.2048692290

- q-position: [    0.1900000,    0.6900000,    0.5000000 ]
  distance:    0.3384278
  band:
  - # 1
    frequency:    5.9687181889
  - # 2
    frequency:    6.7542502656
  - # 3
    frequency:    8.1523500295

- q-position: [    0.1950000,    0.6950000,    0.5000000 ]
  distance:    0.3408802
  band:
  - # 1
    frequency:    5.9816514697
  - # 2
    frequency:    6.8129774482
  - # 3
    frequency:    8.0990053935

- q-position: [    0.2000000,    0.7000000,    0.5000000 ]
  distance:    0.3433325
  band:
  - # 1
    frequency:    5.9936131787
  - # 2
    frequency:    6.8720780823
  - # 3
    frequency:    8.0448785272

- q-position: [    0.2050000,    0.7050000,    0.5000000 ]
  distance:    0.3457849
  band:
  - # 1
    frequency:    6.0045620481
  - # 2
    frequency:    6.9314919800
  - # 3
    frequency:    7.9900135193

- q-position: [    0.2100000,    0.7100000,    0.5000000 ]
  distance:    0.3482373
  band:
  - # 1
    frequency:    6.0144605096
  - # 2
    frequency:    6.9911595810
  - # 3
    frequency:    7.9344553300

- q-position: [    0.2150000,    0.7150000,    0.5000000 ]
  distance:    0.3506897
  band:
  - # 1
    frequency:    6.0232747666
  - # 2
    frequency:    7.0510219762
  - # 3
    frequency:    7.8782497798

- q-position: [    0.2200000,    0.7200000,    0.5000000 ]
  distance:    0.3531420
  band:
  - # 1
    frequency:    6.0309748568
  - # 2
    frequency:    7.1110209280
  - # 3
    frequency:    7.8214435395

- q-position: [    0.2250000,    0.7250000,    0.5000000 ]
  distance:    0.3555944
  band:
  - # 1
    frequency:    6.0375347068
  - # 2
    frequency:    7.1710988883
  - # 3
    frequency:    7.7640841197

- q-position: [    0.2300000,    0.7300000,    0.5000000 ]
  distance:    0.3580468
  band:
  - # 1
    frequency:    6.0429321785
  - # 2
    frequency:    7.2311990147
  - # 3
    frequency:    7.7062198611

- q-position: [    0.2350000,    0.7350000,    0.5000000 ]
  distance:    0.3604992
  band:
  - # 1
    frequency:    6.0471491073
  - # 2
    frequency:    7.2912651841
  - # 3
    frequency:    7.6478999251

- q-position: [    0.2400000,    0.7400000,    0.5000000 ]
  distance:    0.3629515
  band:
  - # 1
    frequency:    6.0501713337
  - # 2
    frequency:    7.3512420064
  - # 3
    frequency:    7.5891742842

- q-position: [    0.2450000,    0.7450000,    0.5000000 ]
  distance:    0.3654039
  band:
  - # 1
    frequency:    6.0519887266
  - # 2
    frequency:    7.4110748353
  - # 3
    frequency:    7.5300937132

- q-position: [    0.2500000,    0.7500000,    0.5000000 ]
  distance:    0.3678563
  label: 'W'
  band:
  - # 1
    frequency:    6.0525952007
  - # 2
    frequency:    7.4707097797
  - # 3
    frequency:    7.4707097797

- q-position: [    0.2500000,    0.7500000,    0.5000000 ]
  distance:    0.3678563
  label: 'W'
  band:
  - # 1
    frequency:    6.0525952007
  - # 2
    frequency:    7.4707097797
  - # 3
    frequency:    7.4707097797

- q-position: [    0.2450000,    0.7450000,    0.5000000 ]
  distance:    0.3703087
  band:
  - # 1
    frequency:    6.0519887266
  - # 2
    frequency:    7.4110748353
  - # 3
    frequency:    7.5300937132

- q-position: [    0.2400000,    0.7400000,    0.5000000 ]
  distance:    0.3727610
  band:
  - # 1
    frequency:    6.0501713337
  - # 2
    frequency:    7.3512420064
  - # 3
    frequency:    7.5891742842

- q-position: [    0.2350000,    0.7350000,    0.5000000 ]
  distance:    0.3752134
  band:
  - # 1
    frequency:    6.0471491073
  - # 2
    frequency:    7.2912651841
  - # 3
    frequency:    7.6478999251

- q-position: [    0.2300000,    0.7300000,    0.5000000 ]
  distance:    0.3776658
  band:
  - # 1
    frequency:    6.0429321785
  - # 2
    frequency:    7.2311990147
  - # 3
    frequency:    7.7062198611

- q-position: [    0.2250000,    0.7250000,    0.5000000 ]
  distance:    0.3801182
  band:
  - # 1
    frequency:    6.0375347068
  - # 2
    frequency:    7.1710988883
  - # 3
    frequency:    7.7640841197

- q-position: [    0.2200000,    0.7200000,    0.5000000 ]
  distance:    0.3825705
  band:
  - # 1
    frequency:    6.0309748568
  - # 2
    frequency:    7.1110209280
  - # 3
    frequency:    7.8214435395

- q-position: [    0.2150000,    0.7150000,    0.5000000 ]
  distance:    0.3850229
  band:
  - # 1
    frequency:    6.0232747666
  - # 2
    frequency:    7.0510219762
  - # 3
    frequency:    7.8782497798

- q-position: [    0.2100000,    0.7100000,    0.5000000 ]
  distance:    0.3874753
  band:
  - # 1
    frequency:    6.0144605096
  - # 2
    frequency:    6.9911595810
  - # 3
    frequency:    7.9344553300

- q-position: [    0.2050000,    0.7050000,    0.5000000 ]
  distance:    0.3899277
  band:
  - # 1
    frequency:    6.0045620481
  - # 2
    frequency:    6.9314919800
  - # 3
    frequency:    7.9900135193

- q-position: [    0.2000000,    0.7000000,    0.5000000 ]
  distance:    0.3923800
  band:
  - # 1
    frequency:    5.9936131787
  - # 2
    frequency:    6.8720780823
  - # 3
    frequency:    8.0448785272

- q-position: [    0.1950000,    0.6950000,    0.5000000 ]
  distance:    0.3948324
  band:
  - # 1
    frequency:    5.9816514697
  - # 2
    frequency:    6.8129774482
  - # 3
    frequency:    8.0990053935

- q-position: [    0.1900000,    0.6900000,    0.5000000 ]
  distance:    0.3972848
  band:
  - # 1
    frequency:    5.9687181889
  - # 2
    frequency:    6.7542502656
  - # 3
    frequency:    8.1523500295

- q-position: [    0.1850000,    0.6850000,    0.5000000 ]
  distance:    0.3997372
  band:
  - # 1
    frequency:    5.9548582219
  - # 2
    frequency:    6.6959573238
  - # 3
    frequency:    8.2048692290

- q-position: [    0.1800000,    0.6800000,    0.5000000 ]
  distance:    0.4021895
  band:
  - # 1
    frequency:    5.9401199809
  - # 2
    frequency:    6.6381599827
  - # 3
    frequency:    8.2565206803

- q-position: [    0.1750000,    0.6750000,    0.5000000 ]
  distance:    0.4046419
  band:
  - # 1
    frequency:    5.9245553016
  - # 2
    frequency:    6.5809201391
  - # 3
    frequency:    8.3072629776

- q-position: [    0.1700000,    0.6700000,    0.5000000 ]
  distance:    0.4070943
  band:
  - # 1
    frequency:    5.9082193304
  - # 2
    frequency:    6.5243001867
  - # 3
    frequency:    8.3570556336

- q-position: [    0.1650000,    0.6650000,    0.5000000 ]
  distance:    0.4095467
  band:
  - # 1
    frequency:    5.8911703978
  - # 2
    frequency:    6.4683629720
  - # 3
    frequency:    8.4058590922

- q-position: [    0.1600000,    0.6600000,    0.5000000 ]
  distance:    0.4119990
  band:
  - # 1
    frequency:    5.8734698803
  - # 2
    frequency:    6.4131717440
  - # 3
    frequency:    8.4536347412

- q-position: [    0.1550000,    0.6550000,    0.5000000 ]
  distance:    0.4144514
  band:
  - # 1
    frequency:    5.8551820485
  - # 2
    frequency:    6.3587900977
  - # 3
    frequency:    8.5003449257

- q-position: [    0.1500000,    0.6500000,    0.5000000 ]
  distance:    0.4169038
  band:
  - # 1
    frequency:    5.8363739015
  - # 2
    frequency:    6.3052819103
  - # 3
    frequency:    8.5459529613

- q-position: [    0.1450000,    0.6450000,    0.5000000 ]
  distance:    0.4193562
  band:
  - # 1
    frequency:    5.8171149855
  - # 2
    frequency:    6.2527112705
  - # 3
    frequency:    8.5904231482

- q-position: [    0.1400000,    0.6400000,    0.5000000 ]
  distance:    0.4218085
  band:
  - # 1
    frequency:    5.7974771985
  - # 2
    frequency:    6.2011423994
  - # 3
    frequency:    8.6337207842

- q-position: [    0.1350000,    0.6350000,    0.5000000 ]
  distance:    0.4242609
  band:
  - # 1
    frequency:    5.7775345784
  - # 2
    frequency:    6.1506395634
  - # 3
    frequency:    8.6758121791

- q-position: [    0.1300000,    0.6300000,    0.5000000 ]
  distance:    0.4267133
  band:
  - # 1
    frequency:    5.7573630743
  - # 2
    frequency:    6.1012669774
  - # 3
    frequency:    8.7166646687

- q-position: [    0.1250000,    0.6250000,    0.5000000 ]
  distance:    0.4291657
  band:
  - # 1
    frequency:    5.7370403021
  - # 2
    frequency:    6.0530886995
  - # 3
    frequency:    8.7562466284

- q-position: [    0.1200000,    0.6200000,    0.5000000 ]
  distance:    0.4316180
  band:
  - # 1
    frequency:    5.7166452827
  - # 2
    frequency:    6.0061685158
  - # 3
    frequency:    8.7945274874

- q-position: [    0.1150000,    0.6150000,    0.5000000 ]
  distance:    0.4340704
  band:
  - # 1
    frequency:    5.6962581624
  - # 2
    frequency:    5.9605698152
  - # 3
    frequency:    8.8314777425

- q-position: [    0.1100000,    0.6100000,    0.5000000 ]
  distance:    0.4365228
  band:
  - # 1
    frequency:    5.6759599179
  - # 2
    frequency:    5.9163554541
  - # 3
    frequency:    8.8670689716

- q-position: [    0.1050000,    0.6050000,    0.5000000 ]
  distance:    0.4389752
  band:
  - # 1
    frequency:    5.6558320433
  - # 2
    frequency:    5.8735876118
  - # 3
    frequency:    8.9012738478

- q-position: [    0.1000000,    0.6000000,    0.5000000 ]
  distance:    0.4414275
  band:
  - # 1
    frequency:    5.6359562222
  - # 2
    frequency:    5.8323276354
  - # 3
    frequency:    8.9340661522

- q-position: [    0.0950000,    0.5950000,    0.5000000 ]
  distance:    0.4438799
  band:
  - # 1
    frequency:    5.6164139836
  - # 2
    frequency:    5.7926358756
  - # 3
    frequency:    8.9654207873

- q-position: [    0.0900000,    0.5900000,    0.5000000 ]
  distance:    0.4463323
  band:
  - # 1
    frequency:    5.5972863445
  - # 2
    frequency:    5.7545715137
  - # 3
    frequency:    8.9953137901

- q-position: [    0.0850000,    0.5850000,    0.5000000 ]
  distance:    0.4487847
  band:
  - # 1
    frequency:    5.5786534398
  - # 2
    frequency:    5.7181923797
  - # 3
    frequency:    9.0237223438

- q-position: [    0.0800000,    0.5800000,    0.5000000 ]
  distance:    0.4512370
  band:
  - # 1
    frequency:    5.5605941410
  - # 2
    frequency:    5.6835547638
  - # 3
    frequency:    9.0506247906

- q-position: [    0.0750000,    0.5750000,    0.5000000 ]
  distance:    0.4536894
  band:
  - # 1
    frequency:    5.5431856667
  - # 2
    frequency:    5.6507132213
  - # 3
    frequency:    9.0760006433

- q-position: [    0.0700000,    0.5700000,    0.5000000 ]
  distance:    0.4561418
  band:
  - # 1
    frequency:    5.5265031865
  - # 2
    frequency:    5.6197203726
  - # 3
    frequency:    9.0998305960
