32   
1    

1    
  0.0100000000000000   0.0000000000000000   0.0000000000000000
  -0.0414449800    0.0000000000    0.0000000000
   0.0020969400   -0.0000000000   -0.0000000000
  -0.0003481100    0.0000000000    0.0000000000
   0.0004907000    0.0000000000   -0.0000000000
  -0.0003481100    0.0000000000    0.0000000000
   0.0004907000    0.0000000000    0.0000000000
   0.0000289900    0.0000000000    0.0000000000
  -0.0007632700    0.0000000000   -0.0000000000
  -0.0014439700    0.0000179200   -0.0000179200
  -0.0004480200    0.0000000100   -0.0000000100
  -0.0014439700   -0.0000179200   -0.0000179200
  -0.0004480200   -0.0000000100   -0.0000000100
  -0.0014439700    0.0000179200    0.0000179200
  -0.0004480200    0.0000000100    0.0000000100
  -0.0014439700   -0.0000179200    0.0000179200
  -0.0004480200   -0.0000000100    0.0000000100
   0.0057659800    0.0000000000   -0.0058575500
   0.0059050600    0.0000000000    0.0060555500
   0.0000826700    0.0000000000    0.0001285900
   0.0000875700    0.0000000000   -0.0001323100
   0.0057659800    0.0000000000    0.0058575500
   0.0059050600   -0.0000000000   -0.0060555500
   0.0000826700   -0.0000000000   -0.0001285900
   0.0000875700    0.0000000000    0.0001323100
   0.0057659800    0.0058575500   -0.0000000000
   0.0059050600   -0.0060555500   -0.0000000000
   0.0057659800   -0.0058575500   -0.0000000000
   0.0059050600    0.0060555500    0.0000000000
   0.0000826700   -0.0001285900   -0.0000000000
   0.0000875700    0.0001323100   -0.0000000000
   0.0000826700    0.0001285900    0.0000000000
   0.0000875700   -0.0001323100   -0.0000000000
