mesh: [    48,    48,    48 ]
nqpoint: 2600   
reciprocal_lattice:
- [   0.24523752,   0.00000000,   0.00000000 ] # a*
- [   0.00000000,   0.24523752,   0.00000000 ] # b*
- [   0.00000000,   0.00000000,   0.24523752 ] # c*
natom:   4      
lattice:
- [     4.077679433369544,     0.000000000000000,     0.000000000000000 ] # a
- [     0.000000000000000,     4.077679433369544,     0.000000000000000 ] # b
- [     0.000000000000000,     0.000000000000000,     4.077679433369544 ] # c
points:
- symbol: Al # 1
  coordinates: [  0.500000000000000,  0.500000000000000,  0.000000000000000 ]
  mass: 26.981539
- symbol: Al # 2
  coordinates: [  0.500000000000000,  0.000000000000000,  0.500000000000000 ]
  mass: 26.981539
- symbol: Al # 3
  coordinates: [  0.000000000000000,  0.500000000000000,  0.500000000000000 ]
  mass: 26.981539
- symbol: Al # 4
  coordinates: [  0.000000000000000,  0.000000000000000,  0.000000000000000 ]
  mass: 26.981539
phonon:
- q-position: [    0.0104167,    0.0104167,    0.0104167 ]
  weight: 8    
  band:
  - # 1
    frequency:     0.1265753566
  - # 2
    frequency:     0.1265753566
  - # 3
    frequency:     0.2895156931
  - # 4
    frequency:     5.4022000553
  - # 5
    frequency:     5.4022000553
  - # 6
    frequency:     5.4022000553
  - # 7
    frequency:     5.4063801238
  - # 8
    frequency:     5.4063801238
  - # 9
    frequency:     5.4063801238
  - # 10
    frequency:     9.2601982036
  - # 11
    frequency:     9.2601982036
  - # 12
    frequency:     9.2601982036

- q-position: [    0.0312500,    0.0104167,    0.0104167 ]
  weight: 24   
  band:
  - # 1
    frequency:     0.2540037772
  - # 2
    frequency:     0.2731403449
  - # 3
    frequency:     0.5343945930
  - # 4
    frequency:     5.3960586548
  - # 5
    frequency:     5.4002317049
  - # 6
    frequency:     5.4055871019
  - # 7
    frequency:     5.4055871019
  - # 8
    frequency:     5.4187142065
  - # 9
    frequency:     5.4187142065
  - # 10
    frequency:     9.2507315268
  - # 11
    frequency:     9.2528859708
  - # 12
    frequency:     9.2528859708

- q-position: [    0.0520833,    0.0104167,    0.0104167 ]
  weight: 24   
  band:
  - # 1
    frequency:     0.4224995469
  - # 2
    frequency:     0.4376905635
  - # 3
    frequency:     0.8191292277
  - # 4
    frequency:     5.3837858163
  - # 5
    frequency:     5.3879448208
  - # 6
    frequency:     5.4157933385
  - # 7
    frequency:     5.4157933385
  - # 8
    frequency:     5.4397524686
  - # 9
    frequency:     5.4397524686
  - # 10
    frequency:     9.2318040297
  - # 11
    frequency:     9.2382855308
  - # 12
    frequency:     9.2382855308

- q-position: [    0.0729167,    0.0104167,    0.0104167 ]
  weight: 24   
  band:
  - # 1
    frequency:     0.5938321166
  - # 2
    frequency:     0.6054097228
  - # 3
    frequency:     1.1149465306
  - # 4
    frequency:     5.3654014231
  - # 5
    frequency:     5.3695393375
  - # 6
    frequency:     5.4321750260
  - # 7
    frequency:     5.4321750260
  - # 8
    frequency:     5.4697486595
  - # 9
    frequency:     5.4697486595
  - # 10
    frequency:     9.2034274625
  - # 11
    frequency:     9.2164448713
  - # 12
    frequency:     9.2164448713

- q-position: [    0.0937500,    0.0104167,    0.0104167 ]
  weight: 24   
  band:
  - # 1
    frequency:     0.7648109290
  - # 2
    frequency:     0.7738511526
  - # 3
    frequency:     1.4144236482
  - # 4
    frequency:     5.3409351973
  - # 5
    frequency:     5.3450449507
  - # 6
    frequency:     5.4541291695
  - # 7
    frequency:     5.4541291695
  - # 8
    frequency:     5.5087342668
  - # 9
    frequency:     5.5087342668
  - # 10
    frequency:     9.1656195431
  - # 11
    frequency:     9.1874358161
  - # 12
    frequency:     9.1874358161

- q-position: [    0.1145833,    0.0104167,    0.0104167 ]
  weight: 24   
  band:
  - # 1
    frequency:     0.9349868919
  - # 2
    frequency:     0.9422007107
  - # 3
    frequency:     1.7146987994
  - # 4
    frequency:     5.3104265771
  - # 5
    frequency:     5.3145010627
  - # 6
    frequency:     5.4810604418
  - # 7
    frequency:     5.4810604418
  - # 8
    frequency:     5.5565668263
  - # 9
    frequency:     5.5565668263
  - # 10
    frequency:     9.1184040673
  - # 11
    frequency:     9.1513538382
  - # 12
    frequency:     9.1513538382

- q-position: [    0.1354167,    0.0104167,    0.0104167 ]
  weight: 24   
  band:
  - # 1
    frequency:     1.1042108632
  - # 2
    frequency:     1.1100472304
  - # 3
    frequency:     2.0143310020
  - # 4
    frequency:     5.2739245539
  - # 5
    frequency:     5.2779566193
  - # 6
    frequency:     5.5123501093
  - # 7
    frequency:     5.5123501093
  - # 8
    frequency:     5.6129798608
  - # 9
    frequency:     5.6129798608
  - # 10
    frequency:     9.0618110528
  - # 11
    frequency:     9.1083178143
  - # 12
    frequency:     9.1083178143

- q-position: [    0.1562500,    0.0104167,    0.0104167 ]
  weight: 24   
  band:
  - # 1
    frequency:     1.2723641127
  - # 2
    frequency:     1.2771167752
  - # 3
    frequency:     2.3124262175
  - # 4
    frequency:     5.2314874722
  - # 5
    frequency:     5.2354699091
  - # 6
    frequency:     5.5473422736
  - # 7
    frequency:     5.5473422736
  - # 8
    frequency:     5.6776181050
  - # 9
    frequency:     5.6776181050
  - # 10
    frequency:     8.9958769158
  - # 11
    frequency:     9.0584697243
  - # 12
    frequency:     9.0584697243

- q-position: [    0.1770833,    0.0104167,    0.0104167 ]
  weight: 24   
  band:
  - # 1
    frequency:     1.4393222068
  - # 2
    frequency:     1.4431919522
  - # 3
    frequency:     2.6083363920
  - # 4
    frequency:     5.1831827914
  - # 5
    frequency:     5.1871083241
  - # 6
    frequency:     5.5853435189
  - # 7
    frequency:     5.5853435189
  - # 8
    frequency:     5.7500608589
  - # 9
    frequency:     5.7500608589
  - # 10
    frequency:     8.9206446780
  - # 11
    frequency:     9.0019742996
  - # 12
    frequency:     9.0019742996

- q-position: [    0.1979167,    0.0104167,    0.0104167 ]
  weight: 24   
  band:
  - # 1
    frequency:     1.6049519243
  - # 2
    frequency:     1.6080816497
  - # 3
    frequency:     2.9015386606
  - # 4
    frequency:     5.1290868133
  - # 5
    frequency:     5.1329480867
  - # 6
    frequency:     5.6256302515
  - # 7
    frequency:     5.6256302515
  - # 8
    frequency:     5.8298381741
  - # 9
    frequency:     5.8298381741
  - # 10
    frequency:     8.8361642004
  - # 11
    frequency:     8.9390186251
  - # 12
    frequency:     8.9390186251

- q-position: [    0.2187500,    0.0104167,    0.0104167 ]
  weight: 24   
  band:
  - # 1
    frequency:     1.7691128453
  - # 2
    frequency:     1.7716079087
  - # 3
    frequency:     3.1915810028
  - # 4
    frequency:     5.0692843758
  - # 5
    frequency:     5.0730739424
  - # 6
    frequency:     5.6674597516
  - # 7
    frequency:     5.6674597516
  - # 8
    frequency:     5.9164429613
  - # 9
    frequency:     5.9164429613
  - # 10
    frequency:     8.7424924413
  - # 11
    frequency:     8.8698117008
  - # 12
    frequency:     8.8698117008

- q-position: [    0.2395833,    0.0104167,    0.0104167 ]
  weight: 24   
  band:
  - # 1
    frequency:     1.9316590791
  - # 2
    frequency:     1.9335995918
  - # 3
    frequency:     3.4780555880
  - # 4
    frequency:     5.0038685158
  - # 5
    frequency:     5.0075788210
  - # 6
    frequency:     5.7100825931
  - # 7
    frequency:     5.7100825931
  - # 8
    frequency:     6.0093406487
  - # 9
    frequency:     6.0093406487
  - # 10
    frequency:     8.6396937359
  - # 11
    frequency:     8.7945839678
  - # 12
    frequency:     8.7945839678

- q-position: [    0.2604167,    0.0104167,    0.0104167 ]
  weight: 24   
  band:
  - # 1
    frequency:     2.0924405367
  - # 2
    frequency:     2.0938890830
  - # 3
    frequency:     3.7605848135
  - # 4
    frequency:     4.9329401034
  - # 5
    frequency:     4.9365634698
  - # 6
    frequency:     5.7527551062
  - # 7
    frequency:     5.7527551062
  - # 8
    frequency:     6.1079771839
  - # 9
    frequency:     6.1079771839
  - # 10
    frequency:     8.5278400917
  - # 11
    frequency:     8.7135868082
  - # 12
    frequency:     8.7135868082

- q-position: [    0.2812500,    0.0104167,    0.0104167 ]
  weight: 24   
  band:
  - # 1
    frequency:     2.2513038144
  - # 2
    frequency:     2.2523104724
  - # 3
    frequency:     4.0388136193
  - # 4
    frequency:     4.8566074507
  - # 5
    frequency:     4.8601360603
  - # 6
    frequency:     5.7947511603
  - # 7
    frequency:     5.7947511603
  - # 8
    frequency:     6.2117857610
  - # 9
    frequency:     6.2117857610
  - # 10
    frequency:     8.4070114976
  - # 11
    frequency:     8.6270920226
  - # 12
    frequency:     8.6270920226

- q-position: [    0.3020833,    0.0104167,    0.0104167 ]
  weight: 24   
  band:
  - # 1
    frequency:     2.4080928194
  - # 2
    frequency:     2.4086985300
  - # 3
    frequency:     4.3124050995
  - # 4
    frequency:     4.7749858975
  - # 5
    frequency:     4.7784117714
  - # 6
    frequency:     5.8353728899
  - # 7
    frequency:     5.8353728899
  - # 8
    frequency:     6.3201924725
  - # 9
    frequency:     6.3201924725
  - # 10
    frequency:     8.2772962427
  - # 11
    frequency:     8.5353912962
  - # 12
    frequency:     8.5353912962

- q-position: [    0.3229167,    0.0104167,    0.0104167 ]
  weight: 24   
  band:
  - # 1
    frequency:     2.5626492401
  - # 2
    frequency:     2.5628881288
  - # 3
    frequency:     4.5810379318
  - # 4
    frequency:     4.6881973764
  - # 5
    frequency:     4.6915123531
  - # 6
    frequency:     5.8739601964
  - # 7
    frequency:     5.8739601964
  - # 8
    frequency:     6.4326210142
  - # 9
    frequency:     6.4326210142
  - # 10
    frequency:     8.1387912385
  - # 11
    frequency:     8.4387956592
  - # 12
    frequency:     8.4387956592

- q-position: [    0.3437500,    0.0104167,    0.0104167 ]
  weight: 24   
  band:
  - # 1
    frequency:     2.7147139438
  - # 2
    frequency:     2.7148129279
  - # 3
    frequency:     4.5963699628
  - # 4
    frequency:     4.5995656723
  - # 5
    frequency:     4.8444048463
  - # 6
    frequency:     5.9098989872
  - # 7
    frequency:     5.9098989872
  - # 8
    frequency:     6.5484965478
  - # 9
    frequency:     6.5484965478
  - # 10
    frequency:     7.9916023430
  - # 11
    frequency:     8.3376349529
  - # 12
    frequency:     8.3376349529

- q-position: [    0.3645833,    0.0104167,    0.0104167 ]
  weight: 24   
  band:
  - # 1
    frequency:     2.8640103317
  - # 2
    frequency:     2.8644222345
  - # 3
    frequency:     4.4996374105
  - # 4
    frequency:     4.5027052452
  - # 5
    frequency:     5.1022117036
  - # 6
    frequency:     5.9426281922
  - # 7
    frequency:     5.9426281922
  - # 8
    frequency:     6.6672488189
  - # 9
    frequency:     6.6672488189
  - # 10
    frequency:     7.8358446802
  - # 11
    frequency:     8.2322573077
  - # 12
    frequency:     8.2322573077

- q-position: [    0.3854167,    0.0104167,    0.0104167 ]
  weight: 24   
  band:
  - # 1
    frequency:     3.0106113358
  - # 2
    frequency:     3.0113143311
  - # 3
    frequency:     4.3981386785
  - # 4
    frequency:     4.4010697593
  - # 5
    frequency:     5.3541769368
  - # 6
    frequency:     5.9716456376
  - # 7
    frequency:     5.9716456376
  - # 8
    frequency:     6.7883146264
  - # 9
    frequency:     6.7883146264
  - # 10
    frequency:     7.6716429526
  - # 11
    frequency:     8.1230286503
  - # 12
    frequency:     8.1230286503

- q-position: [    0.4062500,    0.0104167,    0.0104167 ]
  weight: 24   
  band:
  - # 1
    frequency:     3.1543507847
  - # 2
    frequency:     3.1553255270
  - # 3
    frequency:     4.2920174509
  - # 4
    frequency:     4.2948025884
  - # 5
    frequency:     5.6000312096
  - # 6
    frequency:     5.9965128831
  - # 7
    frequency:     5.9965128831
  - # 8
    frequency:     6.9111397256
  - # 9
    frequency:     6.9111397256
  - # 10
    frequency:     7.4991317417
  - # 11
    frequency:     8.0103322601
  - # 12
    frequency:     8.0103322601

- q-position: [    0.4270833,    0.0104167,    0.0104167 ]
  weight: 24   
  band:
  - # 1
    frequency:     3.2950624625
  - # 2
    frequency:     3.2962915973
  - # 3
    frequency:     4.1814216560
  - # 4
    frequency:     4.1840513041
  - # 5
    frequency:     5.8395171995
  - # 6
    frequency:     6.0168591277
  - # 7
    frequency:     6.0168591277
  - # 8
    frequency:     7.0351802008
  - # 9
    frequency:     7.0351802008
  - # 10
    frequency:     7.3184557930
  - # 11
    frequency:     7.8945684415
  - # 12
    frequency:     7.8945684415

- q-position: [    0.4479167,    0.0104167,    0.0104167 ]
  weight: 24   
  band:
  - # 1
    frequency:     3.4325803388
  - # 2
    frequency:     3.4340481269
  - # 3
    frequency:     4.0665029857
  - # 4
    frequency:     4.0689671871
  - # 5
    frequency:     6.0323842918
  - # 6
    frequency:     6.0323842918
  - # 7
    frequency:     6.0723894513
  - # 8
    frequency:     7.1297702825
  - # 9
    frequency:     7.1599031489
  - # 10
    frequency:     7.1599031489
  - # 11
    frequency:     7.7761545622
  - # 12
    frequency:     7.7761545622

- q-position: [    0.4687500,    0.0104167,    0.0104167 ]
  weight: 24   
  band:
  - # 1
    frequency:     3.5667388470
  - # 2
    frequency:     3.5684308728
  - # 3
    frequency:     3.9474164213
  - # 4
    frequency:     3.9497047421
  - # 5
    frequency:     6.0428613651
  - # 6
    frequency:     6.0428613651
  - # 7
    frequency:     6.2984142622
  - # 8
    frequency:     6.9332410617
  - # 9
    frequency:     7.2847851640
  - # 10
    frequency:     7.2847851640
  - # 11
    frequency:     7.6555270461
  - # 12
    frequency:     7.6555270461

- q-position: [    0.4895833,    0.0104167,    0.0104167 ]
  weight: 24   
  band:
  - # 1
    frequency:     3.6973732044
  - # 2
    frequency:     3.6992761469
  - # 3
    frequency:     3.8243197681
  - # 4
    frequency:     3.8264212195
  - # 5
    frequency:     6.0481380984
  - # 6
    frequency:     6.0481380984
  - # 7
    frequency:     6.5173695775
  - # 8
    frequency:     6.7290448795
  - # 9
    frequency:     7.4092817429
  - # 10
    frequency:     7.4092817429
  - # 11
    frequency:     7.5331722682
  - # 12
    frequency:     7.5331722682

- q-position: [    0.0312500,    0.0312500,    0.0104167 ]
  weight: 24   
  band:
  - # 1
    frequency:     0.2929636326
  - # 2
    frequency:     0.3614608865
  - # 3
    frequency:     0.7189449602
  - # 4
    frequency:     5.3994473332
  - # 5
    frequency:     5.3994473332
  - # 6
    frequency:     5.4012341228
  - # 7
    frequency:     5.4125647041
  - # 8
    frequency:     5.4125647041
  - # 9
    frequency:     5.4386389454
  - # 10
    frequency:     9.2434758649
  - # 11
    frequency:     9.2434758649
  - # 12
    frequency:     9.2455877053

- q-position: [    0.0520833,    0.0312500,    0.0104167 ]
  weight: 48   
  band:
  - # 1
    frequency:     0.4182309522
  - # 2
    frequency:     0.4979607805
  - # 3
    frequency:     0.9625350847
  - # 4
    frequency:     5.3871775373
  - # 5
    frequency:     5.4002757326
  - # 6
    frequency:     5.4041590030
  - # 7
    frequency:     5.4096385042
  - # 8
    frequency:     5.4336182568
  - # 9
    frequency:     5.4666634081
  - # 10
    frequency:     9.2246614124
  - # 11
    frequency:     9.2289887778
  - # 12
    frequency:     9.2310150523

- q-position: [    0.0729167,    0.0312500,    0.0104167 ]
  weight: 48   
  band:
  - # 1
    frequency:     0.5779752467
  - # 2
    frequency:     0.6508767535
  - # 3
    frequency:     1.2297655536
  - # 4
    frequency:     5.3687971567
  - # 5
    frequency:     5.3818673181
  - # 6
    frequency:     5.4141934453
  - # 7
    frequency:     5.4259833360
  - # 8
    frequency:     5.4636494911
  - # 9
    frequency:     5.5025728406
  - # 10
    frequency:     9.1964541722
  - # 11
    frequency:     9.2073186779
  - # 12
    frequency:     9.2092157053

- q-position: [    0.0937500,    0.0312500,    0.0104167 ]
  weight: 48   
  band:
  - # 1
    frequency:     0.7468707246
  - # 2
    frequency:     0.8105378056
  - # 3
    frequency:     1.5088381635
  - # 4
    frequency:     5.3443352538
  - # 5
    frequency:     5.3573693978
  - # 6
    frequency:     5.4309027343
  - # 7
    frequency:     5.4478771739
  - # 8
    frequency:     5.5026890527
  - # 9
    frequency:     5.5462403128
  - # 10
    frequency:     9.1588715829
  - # 11
    frequency:     9.1785380324
  - # 12
    frequency:     9.1802610504

- q-position: [    0.1145833,    0.0312500,    0.0104167 ]
  weight: 48   
  band:
  - # 1
    frequency:     0.9177962563
  - # 2
    frequency:     0.9732058400
  - # 3
    frequency:     1.7940701451
  - # 4
    frequency:     5.3138303908
  - # 5
    frequency:     5.3268216980
  - # 6
    frequency:     5.4537292488
  - # 7
    frequency:     5.4747242438
  - # 8
    frequency:     5.5505917107
  - # 9
    frequency:     5.5974978560
  - # 10
    frequency:     9.1119370818
  - # 11
    frequency:     9.1427431838
  - # 12
    frequency:     9.1442459833

- q-position: [    0.1354167,    0.0312500,    0.0104167 ]
  weight: 48   
  band:
  - # 1
    frequency:     1.0885757614
  - # 2
    frequency:     1.1371442651
  - # 3
    frequency:     2.0822444313
  - # 4
    frequency:     5.2773304699
  - # 5
    frequency:     5.2902735740
  - # 6
    frequency:     5.4820128442
  - # 7
    frequency:     5.5059053370
  - # 8
    frequency:     5.6070876284
  - # 9
    frequency:     5.6561342707
  - # 10
    frequency:     9.0556802613
  - # 11
    frequency:     9.1000541147
  - # 12
    frequency:     9.1012886689

- q-position: [    0.1562500,    0.0312500,    0.0104167 ]
  weight: 48   
  band:
  - # 1
    frequency:     1.2584302230
  - # 2
    frequency:     1.3014060893
  - # 3
    frequency:     2.3713482048
  - # 4
    frequency:     5.2348925367
  - # 5
    frequency:     5.2477838107
  - # 6
    frequency:     5.5150074669
  - # 7
    frequency:     5.5407636445
  - # 8
    frequency:     5.6718180931
  - # 9
    frequency:     5.7218992789
  - # 10
    frequency:     8.9901370607
  - # 11
    frequency:     9.0506141587
  - # 12
    frequency:     9.0515302480

- q-position: [    0.1770833,    0.0312500,    0.0104167 ]
  weight: 48   
  band:
  - # 1
    frequency:     1.4270160341
  - # 2
    frequency:     1.4653995032
  - # 3
    frequency:     2.6600146568
  - # 4
    frequency:     5.1865825472
  - # 5
    frequency:     5.1994203876
  - # 6
    frequency:     5.5519004296
  - # 7
    frequency:     5.5786043451
  - # 8
    frequency:     5.7443590280
  - # 9
    frequency:     5.7945065856
  - # 10
    frequency:     8.9153499910
  - # 11
    frequency:     8.9945896639
  - # 12
    frequency:     8.9951344938

- q-position: [    0.1979167,    0.0312500,    0.0104167 ]
  weight: 48   
  band:
  - # 1
    frequency:     1.5941337787
  - # 2
    frequency:     1.6287096257
  - # 3
    frequency:     2.9472465072
  - # 4
    frequency:     5.1324751000
  - # 5
    frequency:     5.1452602083
  - # 6
    frequency:     5.5918339150
  - # 7
    frequency:     5.6187019784
  - # 8
    frequency:     5.8242372365
  - # 9
    frequency:     5.8736353157
  - # 10
    frequency:     8.8313683909
  - # 11
    frequency:     8.9321696108
  - # 12
    frequency:     8.9322874243

- q-position: [    0.2187500,    0.0312500,    0.0104167 ]
  weight: 48   
  band:
  - # 1
    frequency:     1.7596316509
  - # 2
    frequency:     1.7910169228
  - # 3
    frequency:     3.2322696081
  - # 4
    frequency:     5.0726531371
  - # 5
    frequency:     5.0853887972
  - # 6
    frequency:     5.6339271090
  - # 7
    frequency:     5.6603115418
  - # 8
    frequency:     5.9109425466
  - # 9
    frequency:     5.9589305674
  - # 10
    frequency:     8.7382487094
  - # 11
    frequency:     8.8631968752
  - # 12
    frequency:     8.8635651920

- q-position: [    0.2395833,    0.0312500,    0.0104167 ]
  weight: 48   
  band:
  - # 1
    frequency:     1.9233714843
  - # 2
    frequency:     1.9520564697
  - # 3
    frequency:     3.5144514297
  - # 4
    frequency:     5.0072076139
  - # 5
    frequency:     5.0198999650
  - # 6
    frequency:     5.6772972853
  - # 7
    frequency:     5.7026809436
  - # 8
    frequency:     6.0039375035
  - # 9
    frequency:     6.0500040548
  - # 10
    frequency:     8.6360548132
  - # 11
    frequency:     8.7880920415
  - # 12
    frequency:     8.7890093583

- q-position: [    0.2604167,    0.0312500,    0.0104167 ]
  weight: 48   
  band:
  - # 1
    frequency:     2.0852165642
  - # 2
    frequency:     2.1115961359
  - # 3
    frequency:     3.7932537233
  - # 4
    frequency:     4.9362371422
  - # 5
    frequency:     4.9488954461
  - # 6
    frequency:     5.7210785505
  - # 7
    frequency:     5.7450634881
  - # 8
    frequency:     6.1026654003
  - # 9
    frequency:     6.1464355983
  - # 10
    frequency:     8.5248583148
  - # 11
    frequency:     8.7072229936
  - # 12
    frequency:     8.7087563390

- q-position: [    0.2812500,    0.0312500,    0.0104167 ]
  weight: 48   
  band:
  - # 1
    frequency:     2.2450274425
  - # 2
    frequency:     2.2694242254
  - # 3
    frequency:     4.0682040201
  - # 4
    frequency:     4.8598476081
  - # 5
    frequency:     4.8724845096
  - # 6
    frequency:     5.7644375406
  - # 7
    frequency:     5.7867296718
  - # 8
    frequency:     6.2065570267
  - # 9
    frequency:     6.2477758160
  - # 10
    frequency:     8.4047389174
  - # 11
    frequency:     8.6208601780
  - # 12
    frequency:     8.6230811422

- q-position: [    0.3020833,    0.0312500,    0.0104167 ]
  weight: 48   
  band:
  - # 1
    frequency:     2.4026607820
  - # 2
    frequency:     2.4253421526
  - # 3
    frequency:     4.3388779190
  - # 4
    frequency:     4.7781517682
  - # 5
    frequency:     4.7907835480
  - # 6
    frequency:     5.8065859225
  - # 7
    frequency:     5.8269779178
  - # 8
    frequency:     6.3150363290
  - # 9
    frequency:     6.3535499647
  - # 10
    frequency:     8.2757847741
  - # 11
    frequency:     8.5292939112
  - # 12
    frequency:     8.5322790452

- q-position: [    0.3229167,    0.0312500,    0.0104167 ]
  weight: 48   
  band:
  - # 1
    frequency:     2.5579693492
  - # 2
    frequency:     2.5791599485
  - # 3
    frequency:     4.6048877744
  - # 4
    frequency:     4.6912688269
  - # 5
    frequency:     4.7039156455
  - # 6
    frequency:     5.8467899635
  - # 7
    frequency:     5.8651440857
  - # 8
    frequency:     6.4275251055
  - # 9
    frequency:     6.4632626018
  - # 10
    frequency:     8.1380928564
  - # 11
    frequency:     8.4328338815
  - # 12
    frequency:     8.4366650841

- q-position: [    0.3437500,    0.0312500,    0.0104167 ]
  weight: 48   
  band:
  - # 1
    frequency:     2.7108024230
  - # 2
    frequency:     2.7306934361
  - # 3
    frequency:     4.5993239977
  - # 4
    frequency:     4.6120101299
  - # 5
    frequency:     4.8658752926
  - # 6
    frequency:     5.8843776505
  - # 7
    frequency:     5.9006097226
  - # 8
    frequency:     6.5434468333
  - # 9
    frequency:     6.5764026224
  - # 10
    frequency:     7.9917693296
  - # 11
    frequency:     8.3318086765
  - # 12
    frequency:     8.3365735579

- q-position: [    0.3645833,    0.0312500,    0.0104167 ]
  weight: 48   
  band:
  - # 1
    frequency:     2.8610063341
  - # 2
    frequency:     2.8797624314
  - # 3
    frequency:     4.5024480506
  - # 4
    frequency:     4.5152021131
  - # 5
    frequency:     5.1215065800
  - # 6
    frequency:     5.9187438902
  - # 7
    frequency:     5.9328090974
  - # 8
    frequency:     6.6622297041
  - # 9
    frequency:     6.6924482355
  - # 10
    frequency:     7.8369299311
  - # 11
    frequency:     8.2265653679
  - # 12
    frequency:     8.2323575734

- q-position: [    0.3854167,    0.0312500,    0.0104167 ]
  weight: 48   
  band:
  - # 1
    frequency:     3.0084250291
  - # 2
    frequency:     3.0261896022
  - # 3
    frequency:     4.4007768500
  - # 4
    frequency:     4.4136320227
  - # 5
    frequency:     5.3714687618
  - # 6
    frequency:     5.9493542730
  - # 7
    frequency:     5.9612351065
  - # 8
    frequency:     6.7833089187
  - # 9
    frequency:     6.8108715028
  - # 10
    frequency:     7.6737003508
  - # 11
    frequency:     8.1174692236
  - # 12
    frequency:     8.1243886875

- q-position: [    0.4062500,    0.0312500,    0.0104167 ]
  weight: 48   
  band:
  - # 1
    frequency:     3.1529006236
  - # 2
    frequency:     3.1697997613
  - # 3
    frequency:     4.2944508832
  - # 4
    frequency:     4.3074451312
  - # 5
    frequency:     5.6154676266
  - # 6
    frequency:     5.9757477839
  - # 7
    frequency:     5.9854441606
  - # 8
    frequency:     6.9061281890
  - # 9
    frequency:     6.9311420754
  - # 10
    frequency:     7.5022166085
  - # 11
    frequency:     8.0049037260
  - # 12
    frequency:     8.0130567971

- q-position: [    0.4270833,    0.0312500,    0.0104167 ]
  weight: 48   
  band:
  - # 1
    frequency:     3.2942739357
  - # 2
    frequency:     3.3104194591
  - # 3
    frequency:     4.1836147832
  - # 4
    frequency:     4.1967910881
  - # 5
    frequency:     5.8532259487
  - # 6
    frequency:     5.9975387415
  - # 7
    frequency:     6.0050601688
  - # 8
    frequency:     7.0301400533
  - # 9
    frequency:     7.0527294644
  - # 10
    frequency:     7.3226254303
  - # 11
    frequency:     7.8892714770
  - # 12
    frequency:     7.8987707659

- q-position: [    0.4479167,    0.0312500,    0.0104167 ]
  weight: 48   
  band:
  - # 1
    frequency:     3.4323850046
  - # 2
    frequency:     3.4478767897
  - # 3
    frequency:     4.0684168460
  - # 4
    frequency:     4.0818234599
  - # 5
    frequency:     6.0144181581
  - # 6
    frequency:     6.0197777336
  - # 7
    frequency:     6.0844822637
  - # 8
    frequency:     7.1350846216
  - # 9
    frequency:     7.1548030677
  - # 10
    frequency:     7.1751013721
  - # 11
    frequency:     7.7709984659
  - # 12
    frequency:     7.7819618061

- q-position: [    0.4687500,    0.0312500,    0.0104167 ]
  weight: 48   
  band:
  - # 1
    frequency:     3.5670735967
  - # 2
    frequency:     3.5820013515
  - # 3
    frequency:     3.9490085455
  - # 4
    frequency:     3.9626992865
  - # 5
    frequency:     6.0261546394
  - # 6
    frequency:     6.0293646633
  - # 7
    frequency:     6.3089899481
  - # 8
    frequency:     6.9397634397
  - # 9
    frequency:     7.2795635628
  - # 10
    frequency:     7.2977019393
  - # 11
    frequency:     7.6505578890
  - # 12
    frequency:     7.6631019929

- q-position: [    0.4895833,    0.0312500,    0.0104167 ]
  weight: 48   
  band:
  - # 1
    frequency:     3.6981797050
  - # 2
    frequency:     3.7126243279
  - # 3
    frequency:     3.8255440445
  - # 4
    frequency:     3.8395786589
  - # 5
    frequency:     6.0325948951
  - # 6
    frequency:     6.0336638932
  - # 7
    frequency:     6.5265165020
  - # 8
    frequency:     6.7368429683
  - # 9
    frequency:     7.4036350882
  - # 10
    frequency:     7.4196027109
  - # 11
    frequency:     7.5288207914
  - # 12
    frequency:     7.5429248389

- q-position: [    0.0520833,    0.0520833,    0.0104167 ]
  weight: 24   
  band:
  - # 1
    frequency:     0.4754386950
  - # 2
    frequency:     0.6052498862
  - # 3
    frequency:     1.1714323320
  - # 4
    frequency:     5.3973379862
  - # 5
    frequency:     5.3973379862
  - # 6
    frequency:     5.3992303326
  - # 7
    frequency:     5.4213601936
  - # 8
    frequency:     5.4213601936
  - # 9
    frequency:     5.5019580646
  - # 10
    frequency:     9.2104008229
  - # 11
    frequency:     9.2104008229
  - # 12
    frequency:     9.2164976793

- q-position: [    0.0729167,    0.0520833,    0.0104167 ]
  weight: 48   
  band:
  - # 1
    frequency:     0.5927854712
  - # 2
    frequency:     0.7372935977
  - # 3
    frequency:     1.4103830308
  - # 4
    frequency:     5.3789100641
  - # 5
    frequency:     5.4015730508
  - # 6
    frequency:     5.4029989429
  - # 7
    frequency:     5.4136083767
  - # 8
    frequency:     5.4514618962
  - # 9
    frequency:     5.5447011384
  - # 10
    frequency:     9.1825328148
  - # 11
    frequency:     9.1890714944
  - # 12
    frequency:     9.1947805207

- q-position: [    0.0937500,    0.0520833,    0.0104167 ]
  weight: 48   
  band:
  - # 1
    frequency:     0.7411648302
  - # 2
    frequency:     0.8826338953
  - # 3
    frequency:     1.6660280400
  - # 4
    frequency:     5.3543821030
  - # 5
    frequency:     5.3785653582
  - # 6
    frequency:     5.4109908374
  - # 7
    frequency:     5.4353810086
  - # 8
    frequency:     5.4906095877
  - # 9
    frequency:     5.5945464807
  - # 10
    frequency:     9.1454015918
  - # 11
    frequency:     9.1607471353
  - # 12
    frequency:     9.1659340920

- q-position: [    0.1145833,    0.0520833,    0.0104167 ]
  weight: 48   
  band:
  - # 1
    frequency:     0.9029552954
  - # 2
    frequency:     1.0352742620
  - # 3
    frequency:     1.9317658629
  - # 4
    frequency:     5.3237904896
  - # 5
    frequency:     5.3481003117
  - # 6
    frequency:     5.4271021561
  - # 7
    frequency:     5.4620593957
  - # 8
    frequency:     5.5386524067
  - # 9
    frequency:     5.6511738037
  - # 10
    frequency:     9.0990298186
  - # 11
    frequency:     9.1255257612
  - # 12
    frequency:     9.1300521404

- q-position: [    0.1354167,    0.0520833,    0.0104167 ]
  weight: 48   
  band:
  - # 1
    frequency:     1.0701431900
  - # 2