 running on    4 nodes
 distr:  one band on    1 nodes,    4 groups
 vasp.4.6.28 25Jul05 complex 
 POSCAR found :  1 types and   32 ions

 ----------------------------------------------------------------------------- 
|                                                                             |
|  ADVICE TO THIS USER RUNNING 'VASP/VAMP'   (HEAR YOUR MASTER'S VOICE ...):  |
|                                                                             |
|      You have a (more or less) 'large supercell' and for larger cells       |
|      it might be more efficient to use real space projection operators      |
|      So try LREAL= Auto  in the INCAR   file.                               |
|      Mind: If you want to do an extremely accurate calculations keep the    |
|      reciprocal projection scheme          (i.e. LREAL=.FALSE.)             |
|                                                                             |
 ----------------------------------------------------------------------------- 

 LDA part: xc-table for Pade appr. of Perdew
 POSCAR, INCAR and KPOINTS ok, starting setup
 FFT: planning ...           1
 reading WAVECAR
 entering main loop
       N       E                     dE             d eps       ncg     rms          rms(c)
DAV:   1     0.117255800215E+03    0.11726E+03   -0.32216E+04 26656   0.109E+03
DAV:   2    -0.106026150301E+03   -0.22328E+03   -0.20889E+03 31396   0.137E+02
DAV:   3    -0.119340709437E+03   -0.13315E+02   -0.12608E+02 33196   0.269E+01
DAV:   4    -0.119641527150E+03   -0.30082E+00   -0.29721E+00 31624   0.418E+00
DAV:   5    -0.119645703298E+03   -0.41761E-02   -0.41694E-02 31604   0.573E-01    0.509E+00
DAV:   6    -0.119248079654E+03    0.39762E+00   -0.63538E-02 30840   0.819E-01    0.316E+00
DAV:   7    -0.118959460223E+03    0.28862E+00   -0.18582E-01 29592   0.131E+00    0.136E-01
DAV:   8    -0.118959426318E+03    0.33905E-04   -0.14475E-03 31628   0.142E-01    0.409E-02
DAV:   9    -0.118959445743E+03   -0.19425E-04   -0.48392E-05 31152   0.202E-02    0.322E-03
DAV:  10    -0.118959444041E+03    0.17021E-05   -0.17601E-06 31976   0.442E-03    0.184E-03
DAV:  11    -0.118959440704E+03    0.33367E-05   -0.15040E-07 31348   0.114E-03    0.667E-04
DAV:  12    -0.118959439585E+03    0.11185E-05   -0.19796E-08 20284   0.432E-04    0.958E-05
DAV:  13    -0.118959439493E+03    0.92851E-07   -0.30856E-09 17592   0.190E-04    0.314E-05
DAV:  14    -0.118959439500E+03   -0.76411E-08   -0.45902E-10 16868   0.751E-05
   1 F= -.11895944E+03 E0= -.11895918E+03  d E =-.521029E-03
