  32  32   0   0
  0.1797740E+02  0.8316851E-09  0.8316851E-09  0.8316851E-09  0.5000000E-15
  1.000000000000000E-004
  CAR 
 unknown system                          
     11.26653403     -4.12060122  301      7.14366151      1.00000000
     -4.121  0.0000E+00  0.0000E+00
     -4.069  0.0000E+00  0.0000E+00
     -4.018  0.0000E+00  0.0000E+00
     -3.967  0.0000E+00  0.0000E+00
     -3.915  0.0000E+00  0.0000E+00
     -3.864  0.0000E+00  0.0000E+00
     -3.813  0.0000E+00  0.0000E+00
     -3.762  0.0000E+00  0.0000E+00
     -3.710  0.0000E+00  0.0000E+00
     -3.659  0.0000E+00  0.0000E+00
     -3.608  0.0000E+00  0.0000E+00
     -3.556  0.0000E+00  0.0000E+00
     -3.505  0.0000E+00  0.0000E+00
     -3.454  0.4416E-07  0.2265E-08
     -3.403  0.1338E+00  0.6863E-02
     -3.351  0.7490E+00  0.4528E-01
     -3.300  0.1142E+01  0.1039E+00
     -3.249  0.1819E+01  0.1971E+00
     -3.197  0.1810E+01  0.2900E+00
     -3.146  0.2017E+01  0.3935E+00
     -3.095  0.2432E+01  0.5182E+00
     -3.044  0.1594E+01  0.5999E+00
     -2.992  0.2961E+01  0.7518E+00
     -2.941  0.2326E+01  0.8711E+00
     -2.890  0.3411E+01  0.1046E+01
     -2.838  0.2676E+01  0.1183E+01
     -2.787  0.3862E+01  0.1381E+01
     -2.736  0.3325E+01  0.1552E+01
     -2.684  0.2151E+01  0.1662E+01
     -2.633  0.4221E+01  0.1879E+01
     -2.582  0.3910E+01  0.2079E+01
     -2.531  0.3154E+01  0.2241E+01
     -2.479  0.3787E+01  0.2435E+01
     -2.428  0.4719E+01  0.2677E+01
     -2.377  0.4439E+01  0.2905E+01
     -2.325  0.3366E+01  0.3078E+01
     -2.274  0.5141E+01  0.3341E+01
     -2.223  0.2879E+01  0.3489E+01
     -2.172  0.4970E+01  0.3744E+01
     -2.120  0.4146E+01  0.3957E+01
     -2.069  0.7076E+01  0.4320E+01
     -2.018  0.3417E+01  0.4495E+01
     -1.966  0.3690E+01  0.4684E+01
     -1.915  0.6759E+01  0.5031E+01
     -1.864  0.4204E+01  0.5246E+01
     -1.813  0.4951E+01  0.5500E+01
     -1.761  0.4497E+01  0.5731E+01
     -1.710  0.5740E+01  0.6025E+01
     -1.659  0.5547E+01  0.6310E+01
     -1.607  0.5655E+01  0.6600E+01
     -1.556  0.6394E+01  0.6928E+01
     -1.505  0.4661E+01  0.7167E+01
     -1.453  0.5704E+01  0.7459E+01
     -1.402  0.5563E+01  0.7745E+01
     -1.351  0.6240E+01  0.8065E+01
     -1.300  0.3699E+01  0.8255E+01
     -1.248  0.7831E+01  0.8656E+01
     -1.197  0.7265E+01  0.9029E+01
     -1.146  0.6617E+01  0.9368E+01
     -1.094  0.4904E+01  0.9620E+01
     -1.043  0.5283E+01  0.9891E+01
     -0.992  0.6890E+01  0.1024E+02
     -0.941  0.5230E+01  0.1051E+02
     -0.889  0.7962E+01  0.1092E+02
     -0.838  0.7588E+01  0.1131E+02
     -0.787  0.4515E+01  0.1154E+02
     -0.735  0.8610E+01  0.1198E+02
     -0.684  0.7217E+01  0.1235E+02
     -0.633  0.6724E+01  0.1270E+02
     -0.582  0.2759E+01  0.1284E+02
     -0.530  0.9387E+01  0.1332E+02
     -0.479  0.6248E+01  0.1364E+02
     -0.428  0.7805E+01  0.1404E+02
     -0.376  0.8859E+01  0.1450E+02
     -0.325  0.8039E+01  0.1491E+02
     -0.274  0.6353E+01  0.1523E+02
     -0.223  0.5249E+01  0.1550E+02
     -0.171  0.7071E+01  0.1587E+02
     -0.120  0.6868E+01  0.1622E+02
     -0.069  0.8489E+01  0.1665E+02
     -0.017  0.8719E+01  0.1710E+02
      0.034  0.9197E+01  0.1757E+02
      0.085  0.7269E+01  0.1795E+02
      0.137  0.5397E+01  0.1822E+02
      0.188  0.9328E+01  0.1870E+02
      0.239  0.7231E+01  0.1907E+02
      0.290  0.8301E+01  0.1950E+02
      0.342  0.5504E+01  0.1978E+02
      0.393  0.9120E+01  0.2025E+02
      0.444  0.8143E+01  0.2067E+02
      0.496  0.9790E+01  0.2117E+02
      0.547  0.1083E+02  0.2172E+02
      0.598  0.5664E+01  0.2201E+02
      0.649  0.8564E+01  0.2245E+02
      0.701  0.7591E+01  0.2284E+02
      0.752  0.7044E+01  0.2320E+02
      0.803  0.7255E+01  0.2358E+02
      0.855  0.1024E+02  0.2410E+02
      0.906  0.9749E+01  0.2460E+02
      0.957  0.1005E+02  0.2512E+02
      1.008  0.8738E+01  0.2556E+02
      1.060  0.7992E+01  0.2597E+02
      1.111  0.9901E+01  0.2648E+02
      1.162  0.4654E+01  0.2672E+02
      1.214  0.1176E+02  0.2732E+02
      1.265  0.6008E+01  0.2763E+02
      1.316  0.1024E+02  0.2816E+02
      1.367  0.1161E+02  0.2875E+02
      1.419  0.1014E+02  0.2927E+02
      1.470  0.8204E+01  0.2969E+02
      1.521  0.5678E+01  0.2998E+02
      1.573  0.1398E+02  0.3070E+02
      1.624  0.8899E+01  0.3116E+02
      1.675  0.7533E+01  0.3154E+02
      1.727  0.8694E+01  0.3199E+02
      1.778  0.1178E+02  0.3259E+02
      1.829  0.6278E+01  0.3292E+02
      1.880  0.1134E+02  0.3350E+02
      1.932  0.1041E+02  0.3403E+02
      1.983  0.9195E+01  0.3450E+02
      2.034  0.1161E+02  0.3510E+02
      2.086  0.1096E+02  0.3566E+02
      2.137  0.8877E+01  0.3612E+02
      2.188  0.6130E+01  0.3643E+02
      2.239  0.1075E+02  0.3698E+02
      2.291  0.1128E+02  0.3756E+02
      2.342  0.1074E+02  0.3811E+02
      2.393  0.9732E+01  0.3861E+02
      2.445  0.1001E+02  0.3912E+02
      2.496  0.1276E+02  0.3978E+02
      2.547  0.8529E+01  0.4022E+02
      2.598  0.1081E+02  0.4077E+02
      2.650  0.9567E+01  0.4126E+02
      2.701  0.1085E+02  0.4182E+02
      2.752  0.7327E+01  0.4219E+02
      2.804  0.1526E+02  0.4298E+02
      2.855  0.9213E+01  0.4345E+02
      2.906  0.1077E+02  0.4400E+02
      2.957  0.1006E+02  0.4452E+02
      3.009  0.1195E+02  0.4513E+02
      3.060  0.7958E+01  0.4554E+02
      3.111  0.1188E+02  0.4615E+02
      3.163  0.1294E+02  0.4681E+02
      3.214  0.7413E+01  0.4719E+02
      3.265  0.1508E+02  0.4797E+02
      3.317  0.1047E+02  0.4850E+02
      3.368  0.1050E+02  0.4904E+02
      3.419  0.1235E+02  0.4967E+02
      3.470  0.1045E+02  0.5021E+02
      3.522  0.9541E+01  0.5070E+02
      3.573  0.8908E+01  0.5116E+02
      3.624  0.1394E+02  0.5187E+02
      3.676  0.1196E+02  0.5248E+02
      3.727  0.1456E+02  0.5323E+02
      3.778  0.9131E+01  0.5370E+02
      3.829  0.1251E+02  0.5434E+02
      3.881  0.9792E+01  0.5484E+02
      3.932  0.1346E+02  0.5553E+02
      3.983  0.1132E+02  0.5611E+02
      4.035  0.1019E+02  0.5664E+02
      4.086  0.1249E+02  0.5728E+02
      4.137  0.1388E+02  0.5799E+02
      4.188  0.1445E+02  0.5873E+02
      4.240  0.8461E+01  0.5917E+02
      4.291  0.1563E+02  0.5997E+02
      4.342  0.9922E+01  0.6048E+02
      4.394  0.1238E+02  0.6111E+02
      4.445  0.9400E+01  0.6159E+02
      4.496  0.1835E+02  0.6253E+02
      4.547  0.1367E+02  0.6324E+02
      4.599  0.1111E+02  0.6381E+02
      4.650  0.1249E+02  0.6445E+02
      4.701  0.1247E+02  0.6509E+02
      4.753  0.1320E+02  0.6576E+02
      4.804  0.1375E+02  0.6647E+02
      4.855  0.1373E+02  0.6717E+02
      4.907  0.7833E+01  0.6757E+02
      4.958  0.1196E+02  0.6819E+02
      5.009  0.1306E+02  0.6886E+02
      5.060  0.1769E+02  0.6976E+02
      5.112  0.8488E+01  0.7020E+02
      5.163  0.1331E+02  0.7088E+02
      5.214  0.1187E+02  0.7149E+02
      5.266  0.1012E+02  0.7201E+02
      5.317  0.1515E+02  0.7279E+02
      5.368  0.1135E+02  0.7337E+02
      5.419  0.8060E+01  0.7378E+02
      5.471  0.1072E+02  0.7433E+02
      5.522  0.1246E+02  0.7497E+02
      5.573  0.1267E+02  0.7562E+02
      5.625  0.1680E+02  0.7648E+02
      5.676  0.1114E+02  0.7705E+02
      5.727  0.1107E+02  0.7762E+02
      5.778  0.9472E+01  0.7811E+02
      5.830  0.1211E+02  0.7873E+02
      5.881  0.1210E+02  0.7935E+02
      5.932  0.1345E+02  0.8004E+02
      5.984  0.1503E+02  0.8081E+02
      6.035  0.1100E+02  0.8138E+02
      6.086  0.1370E+02  0.8208E+02
      6.137  0.1435E+02  0.8281E+02
      6.189  0.1662E+02  0.8367E+02
      6.240  0.8381E+01  0.8410E+02
      6.291  0.1348E+02  0.8479E+02
      6.343  0.1032E+02  0.8532E+02
      6.394  0.1321E+02  0.8599E+02
      6.445  0.1247E+02  0.8663E+02
      6.497  0.1647E+02  0.8748E+02
      6.548  0.1140E+02  0.8806E+02
      6.599  0.1219E+02  0.8869E+02
      6.650  0.1756E+02  0.8959E+02
      6.702  0.1314E+02  0.9026E+02
      6.753  0.1051E+02  0.9080E+02
      6.804  0.1378E+02  0.9151E+02
      6.856  0.1599E+02  0.9233E+02
      6.907  0.1065E+02  0.9288E+02
      6.958  0.1304E+02  0.9354E+02
      7.009  0.1505E+02  0.9432E+02
      7.061  0.1371E+02  0.9502E+02
      7.112  0.1269E+02  0.9567E+02
      7.163  0.1208E+02  0.9629E+02
      7.215  0.1529E+02  0.9707E+02
      7.266  0.1409E+02  0.9780E+02
      7.317  0.1462E+02  0.9855E+02
      7.368  0.1527E+02  0.9933E+02
      7.420  0.1244E+02  0.9997E+02
      7.471  0.1311E+02  0.1006E+03
      7.522  0.1229E+02  0.1013E+03
      7.574  0.1631E+02  0.1021E+03
      7.625  0.1626E+02  0.1029E+03
      7.676  0.1433E+02  0.1037E+03
      7.727  0.1813E+02  0.1046E+03
      7.779  0.1028E+02  0.1051E+03
      7.830  0.1452E+02  0.1059E+03
      7.881  0.1122E+02  0.1065E+03
      7.933  0.1108E+02  0.1070E+03
      7.984  0.1606E+02  0.1078E+03
      8.035  0.1347E+02  0.1085E+03
      8.087  0.1283E+02  0.1092E+03
      8.138  0.2018E+02  0.1102E+03
      8.189  0.1914E+02  0.1112E+03
      8.240  0.1142E+02  0.1118E+03
      8.292  0.1405E+02  0.1125E+03
      8.343  0.1529E+02  0.1133E+03
      8.394  0.1333E+02  0.1140E+03
      8.446  0.1511E+02  0.1148E+03
      8.497  0.1486E+02  0.1155E+03
      8.548  0.9155E+01  0.1160E+03
      8.599  0.1551E+02  0.1168E+03
      8.651  0.1981E+02  0.1178E+03
      8.702  0.1244E+02  0.1184E+03
      8.753  0.1746E+02  0.1193E+03
      8.805  0.1216E+02  0.1200E+03
      8.856  0.1618E+02  0.1208E+03
      8.907  0.1806E+02  0.1217E+03
      8.958  0.1130E+02  0.1223E+03
      9.010  0.1424E+02  0.1230E+03
      9.061  0.1560E+02  0.1238E+03
      9.112  0.1363E+02  0.1245E+03
      9.164  0.1845E+02  0.1255E+03
      9.215  0.1184E+02  0.1261E+03
      9.266  0.1776E+02  0.1270E+03
      9.317  0.1048E+02  0.1275E+03
      9.369  0.1363E+02  0.1282E+03
      9.420  0.1255E+02  0.1289E+03
      9.471  0.1483E+02  0.1296E+03
      9.523  0.1341E+02  0.1303E+03
      9.574  0.1043E+02  0.1309E+03
      9.625  0.1568E+02  0.1317E+03
      9.677  0.8985E+01  0.1321E+03
      9.728  0.1418E+02  0.1328E+03
      9.779  0.1197E+02  0.1335E+03
      9.830  0.8004E+01  0.1339E+03
      9.882  0.7434E+01  0.1343E+03
      9.933  0.9501E+01  0.1347E+03
      9.984  0.7905E+01  0.1351E+03
     10.036  0.5700E+01  0.1354E+03
     10.087  0.4267E+01  0.1357E+03
     10.138  0.2128E+01  0.1358E+03
     10.189  0.1596E+01  0.1358E+03
     10.241  0.4064E+00  0.1359E+03
     10.292  0.1363E+01  0.1359E+03
     10.343  0.2612E+00  0.1360E+03
     10.395  0.1742E+00  0.1360E+03
     10.446  0.6833E+00  0.1360E+03
     10.497  0.0000E+00  0.1360E+03
     10.548  0.6574E-03  0.1360E+03
     10.600  0.8961E-01  0.1360E+03
     10.651  0.0000E+00  0.1360E+03
     10.702  0.0000E+00  0.1360E+03
     10.754  0.0000E+00  0.1360E+03
     10.805  0.0000E+00  0.1360E+03
     10.856  0.0000E+00  0.1360E+03
     10.908  0.0000E+00  0.1360E+03
     10.959  0.0000E+00  0.1360E+03
     11.010  0.0000E+00  0.1360E+03
     11.061  0.0000E+00  0.1360E+03
     11.113  0.0000E+00  0.1360E+03
     11.164  0.0000E+00  0.1360E+03
     11.215  0.0000E+00  0.1360E+03
     11.267  0.0000E+00  0.1360E+03
