   32   32    1    1
  0.1797740E+02  0.8316851E-09  0.8316851E-09  0.8316851E-09  0.5000000E-15
  1.000000000000000E-004
  CAR 
 unknown system                          
   96  196   68
 
  0.0000000E+00  0.0000000E+00  0.0000000E+00  0.5787037E-03
   1       -3.4212
   2       -1.2991
   3       -1.2955
   4       -1.2955
   5       -1.2955
   6       -1.2955
   7       -1.2919
   8        0.7952
   9        0.7996
  10        0.7996
  11        0.8012
  12        0.8013
  13        0.8013
  14        0.8013
  15        0.8013
  16        0.8015
  17        0.8031
  18        0.8031
  19        0.8075
  20        2.8645
  21        2.8648
  22        2.8648
  23        2.8650
  24        2.8782
  25        2.8784
  26        2.8784
  27        2.8787
  28        4.4173
  29        4.4173
  30        4.4173
  31        5.5342
  32        5.5342
  33        5.5342
  34        6.3925
  35        6.3925
  36        6.3966
  37        6.3966
  38        6.3968
  39        6.3968
  40        6.3968
  41        6.3968
  42        6.3969
  43        6.3969
  44        6.4010
  45        6.4010
  46        7.4448
  47        7.4488
  48        7.4488
  49        7.4488
  50        7.4488
  51        7.4527
  52        7.7804
  53        7.7813
  54        7.7813
  55        7.7813
  56        7.7813
  57        7.7822
  58        8.3750
  59        8.3753
  60        8.3773
  61        8.3789
  62        8.3790
  63        8.3790
  64        8.3790
  65        8.3791
  66        8.3806
  67        8.3827
  68        8.3830
 
  0.8333333E-01  0.0000000E+00  0.0000000E+00  0.1157407E-02
   1       -3.4063
   2       -1.6330
   3       -1.2809
   4       -1.2808
   5       -1.2808
   6       -1.2808
   7       -0.9295
   8        0.4683
   9        0.4683
  10        0.4683
  11        0.4683
  12        0.8158
  13        0.8158
  14        0.8158
  15        0.8158
  16        1.1625
  17        1.1625
  18        1.1625
  19        1.1625
  20        2.5426
  21        2.5426
  22        2.5426
  23        2.5426
  24        3.2284
  25        3.2284
  26        3.2284
  27        3.2284
  28        4.1063
  29        4.4310
  30        4.4310
  31        5.5488
  32        5.5488
  33        5.8712
  34        6.0802
  35        6.0802
  36        6.1066
  37        6.1067
  38        6.1067
  39        6.1067
  40        6.4105
  41        6.4105
  42        6.4105
  43        6.4105
  44        6.7410
  45        6.7410
  46        7.2499
  47        7.2500
  48        7.5665
  49        7.5665
  50        7.5665
  51        7.5665
  52        7.9931
  53        7.9933
  54        7.9933
  55        7.9933
  56        8.0060
  57        8.0061
  58        8.0621
  59        8.0621
  60        8.0622
  61        8.0622
  62        8.1026
  63        8.1026
  64        8.1026
  65        8.1026
  66        8.7233
  67        8.7233
  68        8.7233
 
  0.1666667E+00  0.0000000E+00  0.0000000E+00  0.1157407E-02
   1       -3.3618
   2       -1.9419
   3       -1.2369
   4       -1.2369
   5       -1.2369
   6       -1.2369
   7       -0.5353
   8        0.1636
   9        0.1636
  10        0.1636
  11        0.1636
  12        0.8592
  13        0.8592
  14        0.8592
  15        0.8592
  16        1.5514
  17        1.5514
  18        1.5514
  19        1.5514
  20        2.2418
  21        2.2418
  22        2.2418
  23        2.2418
  24        3.5518
  25        3.6126
  26        3.6126
  27        3.6126
  28        3.6126
  29        4.4722
  30        4.4722
  31        5.5723
  32        5.5725
  33        5.5725
  34        5.5725
  35        5.5926
  36        5.5928
  37        5.7913
  38        5.7913
  39        6.4518
  40        6.4518
  41        6.4518
  42        6.4518
  43        6.5039
  44        6.9685
  45        6.9685
  46        7.1129
  47        7.1129
  48        7.5814
  49        7.5814
  50        7.5814
  51        7.5815
  52        7.6516
  53        7.6516
  54        7.6516
  55        7.6517
  56        7.7731
  57        7.7731
  58        7.7731
  59        7.7731
  60        8.3649
  61        8.3649
  62        8.5611
  63        8.5611
  64        8.5611
  65        8.5611
  66        9.0193
  67        9.0195
  68        9.0209
 
  0.2500000E+00  0.0000000E+00  0.0000000E+00  0.1157407E-02
   1       -3.2875
   2       -2.2218
   3       -1.1636
   4       -1.1636
   5       -1.1636
   6       -1.1636
   7       -0.1155
   8       -0.1126
   9       -0.1126
  10       -0.1126
  11       -0.1104
  12        0.9315
  13        0.9315
  14        0.9315
  15        0.9315
  16        1.9651
  17        1.9671
  18        1.9671
  19        1.9679
  20        1.9691
  21        1.9699
  22        1.9699
  23        1.9718
  24        2.9695
  25        4.0240
  26        4.0240
  27        4.0240
  28        4.0240
  29        4.5408
  30        4.5408
  31        5.0038
  32        5.0038
  33        5.0038
  34        5.0039
  35        5.5301
  36        5.5301
  37        5.6655
  38        5.6655
  39        6.5206
  40        6.5206
  41        6.5206
  42        6.5206
  43        6.7022
  44        6.7022
  45        7.0220
  46        7.0220
  47        7.0220
  48        7.0220
  49        7.2164
  50        7.5097
  51        7.5097
  52        7.5115
  53        7.5115
  54        7.5143
  55        7.5143
  56        7.7325
  57        7.7325
  58        7.7325
  59        7.7325
  60        8.7539
  61        8.7540
  62        8.7543
  63        8.7543
  64        8.7599
  65        8.7600
  66        9.2464
  67        9.2464
  68        9.2464
 
  0.3333333E+00  0.0000000E+00  0.0000000E+00  0.1157407E-02
   1       -3.1836
   2       -2.4728
   3       -1.0612
   4       -1.0611
   5       -1.0611
   6       -1.0611
   7       -0.3601
   8       -0.3601
   9       -0.3601
  10       -0.3601
  11        0.3364
  12        1.0326
  13        1.0326
  14        1.0326
  15        1.0326
  16        1.7246
  17        1.7246
  18        1.7246
  19        1.7246
  20        2.3971
  21        2.4115
  22        2.4115
  23        2.4115
  24        2.4116
  25        4.4421
  26        4.4421
  27        4.4421
  28        4.4421
  29        4.4623
  30        4.4623
  31        4.4623
  32        4.4623
  33        4.6370
  34        4.6370
  35        5.2964
  36        5.2964
  37        5.7675
  38        5.7675
  39        6.4599
  40        6.4603
  41        6.4680
  42        6.4680
  43        6.4680
  44        6.4685
  45        6.6169
  46        6.6169
  47        6.6169
  48        6.6169
  49        7.2774
  50        7.2774
  51        7.2774
  52        7.2774
  53        7.8353
  54        7.8353
  55        7.8353
  56        7.8353
  57        7.9398
  58        7.9398
  59        7.9709
  60        8.5160
  61        8.5160
  62        8.5160
  63        8.5160
  64        9.1798
  65        9.1798
  66        9.9219
  67        9.9234
  68        9.9287
 
  0.4166667E+00  0.0000000E+00  0.0000000E+00  0.1157407E-02
   1       -3.0500
   2       -2.6945
   3       -0.9295
   4       -0.9295
   5       -0.9295
   6       -0.9295
   7       -0.5789
   8       -0.5789
   9       -0.5789
  10       -0.5789
  11        0.8131
  12        1.1626
  13        1.1626
  14        1.1626
  15        1.1626
  16        1.5087
  17        1.5087
  18        1.5087
  19        1.5087
  20        1.8449
  21        2.8817
  22        2.8817
  23        2.8817
  24        2.8818
  25        3.8987
  26        3.8987
  27        3.8987
  28        3.8987
  29        4.7605
  30        4.7605
  31        4.9269
  32        4.9269
  33        4.9269
  34        4.9269
  35        5.0902
  36        5.0902
  37        5.8981
  38        5.8982
  39        5.9315
  40        5.9315
  41        5.9315
  42        5.9316
  43        6.2451
  44        6.2451
  45        6.7407
  46        6.7407
  47        6.7407
  48        6.7407
  49        7.0710
  50        7.0710
  51        7.0710
  52        7.0710
  53        7.9645
  54        7.9645
  55        7.9645
  56        7.9645
  57        8.3048
  58        8.3048
  59        8.3048
  60        8.3048
  61        8.3949
  62        8.3949
  63        8.7571
  64        9.3882
  65        9.3882
  66        9.6215
  67        9.6215
  68       10.3775
 
  0.5000000E+00  0.0000000E+00  0.0000000E+00  0.5787037E-03
   1       -2.8883
   2       -2.8856
   3       -0.7725
   4       -0.7695
   5       -0.7695
   6       -0.7688
   7       -0.7686
   8       -0.7679
   9       -0.7679
  10       -0.7649
  11        1.3138
  12        1.3164
  13        1.3200
  14        1.3201
  15        1.3201
  16        1.3209
  17        1.3217
  18        1.3225
  19        1.3225
  20        1.3250
  21        3.3767
  22        3.3771
  23        3.3771
  24        3.3777
  25        3.3780
  26        3.3786
  27        3.3786
  28        3.3791
  29        4.9102
  30        4.9102
  31        4.9130
  32        4.9130
  33        5.4159
  34        5.4159
  35        5.4166
  36        5.4167
  37        5.4173
  38        5.4175
  39        5.4181
  40        5.4181
  41        6.0559
  42        6.0567
  43        6.0585
  44        6.0593
  45        6.8898
  46        6.8898
  47        6.8908
  48        6.8920
  49        6.8922
  50        6.8933
  51        6.8943
  52        6.8943
  53        8.1187
  54        8.1199
  55        8.1199
  56        8.1200
  57        8.1219
  58        8.1220
  59        8.1220
  60        8.1232
  61        8.8765
  62        8.8765
  63        8.8788
  64        8.8788
  65        9.5705
  66        9.5721
  67       10.0798
  68       10.0817
 
  0.0000000E+00  0.8333333E-01  0.0000000E+00  0.2314815E-02
   1       -3.4063
   2       -1.6330
   3       -1.2836
   4       -1.2808
   5       -1.2808
   6       -1.2781
   7       -0.9295
   8        0.4655
   9        0.4683
  10        0.4683
  11        0.4711
  12        0.8137
  13        0.8147
  14        0.8169
  15        0.8179
  16        1.1597
  17        1.1625
  18        1.1625
  19        1.1652
  20        2.5405
  21        2.5416
  22        2.5437
  23        2.5448
  24        3.2262
  25        3.2273
  26        3.2295
  27        3.2305
  28        4.1063
  29        4.4310
  30        4.4310
  31        5.5488
  32        5.5488
  33        5.8712
  34        6.0800
  35        6.0802
  36        6.1037
  37        6.1066
  38        6.1066
  39        6.1097
  40        6.4079
  41        6.4105
  42        6.4105
  43        6.4131
  44        6.7410
  45        6.7410
  46        7.2499
  47        7.2500
  48        7.5641
  49        7.5665
  50        7.5666
  51        7.5689
  52        7.9917
  53        7.9932
  54        7.9933
  55        7.9949
  56        8.0060
  57        8.0060
  58        8.0596
  59        8.0622
  60        8.0622
  61        8.0648
  62        8.1000
  63        8.1016
  64        8.1036
  65        8.1052
  66        8.7212
  67        8.7233
  68        8.7258
 
  0.8333333E-01  0.8333333E-01  0.0000000E+00  0.4629630E-02
   1       -3.3915
   2       -1.6195
   3       -1.6172
   4       -1.2662
   5       -1.2662
   6       -0.9160
   7       -0.9138
   8        0.1346
   9        0.4812
  10        0.4822
  11        0.4835
  12        0.4844
  13        0.8297
  14        0.8307
  15        1.1753
  16        1.1762
  17        1.1776
  18        1.1785
  19        1.5228
  20        2.2131
  21        2.2131
  22        2.8943
  23        2.8943
  24        2.9059
  25        2.9059
  26        3.5843
  27        3.5843
  28        4.1198
  29        4.1206
  30        4.4447
  31        5.5634
  32        5.7871
  33        5.7893
  34        5.8852
  35        5.8860
  36        6.0926
  37        6.0950
  38        6.0987
  39        6.0990
  40        6.1437
  41        6.1437
  42        6.4506
  43        6.4520
  44        6.7535
  45        6.7560
  46        7.2827
  47        7.2846
  48        7.5490
  49        7.5509
  50        7.7454
  51        7.7831
  52        7.7840
  53        7.7853
  54        7.7862
  55        7.8023
  56        7.8023
  57        8.0372
  58        8.0382
  59        8.0857
  60        8.0857
  61        8.3006
  62        8.3024
  63        8.4056
  64        8.4075
  65        8.4466
  66        8.4477
  67        8.4479
  68        8.4489
 
  0.1666667E+00  0.8333333E-01  0.0000000E+00  0.4629630E-02
   1       -3.3469
   2       -1.9271
   3       -1.5743
   4       -1.2222
   5       -1.2222
   6       -0.8710
   7       -0.5208
   8       -0.1707
   9        0.1781
  10        0.1781
  11        0.5256
  12        0.5263
  13        0.5269
  14        1.2194
  15        1.2202
  16        1.2207
  17        1.5658
  18        1.5658
  19        1.9106
  20        1.9116
  21        1.9119
  22        2.5998
  23        2.5998
  24        3.2851
  25        3.2851
  26        3.5659
  27        3.9677
  28        3.9677
  29        4.1620
  30        4.4859
  31        5.2514
  32        5.4969
  33        5.5858
  34        5.5858
  35        5.6073
  36        5.8051
  37        5.9202
  38        5.9290
  39        6.1352
  40        6.1648
  41        6.1648
  42        6.5181
  43        6.7960
  44        6.8087
  45        7.0099
  46        7.1266
  47        7.2620
  48        7.2621
  49        7.2854
  50        7.3368
  51        7.4563
  52        7.4942
  53        7.4942
  54        7.9279
  55        7.9281
  56        7.9494
  57        7.9573
  58        7.9574
  59        8.1174
  60        8.2942
  61        8.3821
  62        8.5824
  63        8.5824
  64        8.6669
  65        8.6995
  66        8.7786
  67        8.8202
  68        8.8203
 
  0.2500000E+00  0.8333333E-01  0.0000000E+00  0.4629630E-02
   1       -3.2726
   2       -2.2071
   3       -1.5009
   4       -1.1490
   5       -1.1490
   6       -0.7980
   7       -0.4475
   8       -0.1002
   9       -0.0980
  10       -0.0966
  11        0.2506
  12        0.5987
  13        0.5987
  14        1.2923
  15        1.2923
  16        1.6360
  17        1.6384
  18        1.6397
  19        1.9823
  20        1.9823
  21        2.3251
  22        2.3276
  23        2.3289
  24        2.9837
  25        3.6973
  26        3.6973
  27        4.2317
  28        4.3783
  29        4.3783
  30        4.5546
  31        4.6806
  32        5.0178
  33        5.0178
  34        5.2332
  35        5.3542
  36        5.5438
  37        5.6801
  38        6.0007
  39        6.2040
  40        6.2337
  41        6.2337
  42        6.7013
  43        6.7013
  44        6.7126
  45        6.8648
  46        7.0238
  47        7.1947
  48        7.2303
  49        7.2309
  50        7.2313
  51        7.2393
  52        7.3700
  53        7.3700
  54        7.4114
  55        7.5262
  56        7.8558
  57        8.0432
  58        8.0432
  59        8.0737
  60        8.4334
  61        8.7747
  62        8.9386
  63        9.0588
  64        9.0595
  65        9.0626
  66        9.1005
  67        9.1784
  68        9.2205
 
  0.3333333E+00  0.8333333E-01  0.0000000E+00  0.4629630E-02
   1       -3.1687
   2       -2.4580
   3       -1.3982
   4       -1.0465
   5       -1.0465
   6       -0.6963
   7       -0.6951
   8       -0.3456
   9       -0.3456
  10        0.0036
  11        0.3509
  12        0.7001
  13        0.7001
  14        1.3926
  15        1.3929
  16        1.3938
  17        1.3941
  18        2.0818
  19        2.0838
  20        2.0839
  21        2.4115
  22        2.4258
  23        2.4259
  24        2.7689
  25        4.1172
  26        4.1364
  27        4.1365
  28        4.3292
  29        4.4562
  30        4.4562
  31        4.6507
  32        4.7943
  33        4.8157
  34        4.8158
  35        4.9969
  36        5.3101
  37        5.7820
  38        6.1012
  39        6.1461
  40        6.1461
  41        6.3003
  42        6.3307
  43        6.3307
  44        6.4738
  45        6.7850
  46        6.8172
  47        6.8173
  48        6.9601
  49        6.9618
  50        6.9959
  51        6.9959
  52        7.5125
  53        7.6218
  54        7.6631
  55        7.9536
  56        7.9848
  57        8.1464
  58        8.1464
  59        8.1824
  60        8.1941
  61        8.8226
  62        8.8226
  63        8.8632
  64        9.1942
  65        9.4814
  66        9.6057
  67        9.6418
  68        9.6473
 
  0.4166667E+00  0.8333333E-01  0.0000000E+00  0.4629630E-02
   1       -3.0352
   2       -2.6797
   3       -1.2662
   4       -0.9161
   5       -0.9148
   6       -0.9135
   7       -0.5656
   8       -0.5643
   9       -0.5630
  10       -0.2146
  11        0.8271
  12        0.8303
  13        0.8308
  14        1.1771
  15        1.1771
  16        1.5229
  17        1.5229
  18        1.8591
  19        1.8683
  20        1.8685
  21        2.5532
  22        2.8960
  23        2.8960
  24        3.2381
  25        3.5724
  26        3.9129
  27        3.9129
  28        4.2525
  29        4.4544
  30        4.6019
  31        4.6019
  32        4.7743
  33        4.7884
  34        5.1040
  35        5.2794
  36        5.2794
  37        5.6085
  38        5.6085
  39        5.9127
  40        6.2302
  41        6.2592
  42        6.2818
  43        6.2819
  44        6.4241
  45        6.4555
  46        6.4555
  47        6.5726
  48        6.7543
  49        6.7881
  50        6.7881
  51        7.0850
  52        7.4153
  53        7.6412
  54        7.9822
  55        8.1174
  56        8.2749
  57        8.2749
  58        8.3129
  59        8.4086
  60        8.6128
  61        8.6128
  62        8.6528
  63        8.7710
  64        9.1063
  65        9.4020
  66        9.6356
  67        9.9227
  68       10.0707
 
  0.5000000E+00  0.8333333E-01  0.0000000E+00  0.2314815E-02
   1       -2.8735
   2       -2.8708
   3       -1.1064
   4       -1.1037
   5       -0.7560
   6       -0.7549
   7       -0.7533
   8       -0.7522
   9       -0.4053
  10       -0.4026
  11        0.9874
  12        0.9885
  13        0.9901
  14        0.9913
  15        1.3300
  16        1.3314
  17        1.6794
  18        1.6805
  19        1.6821
  20        1.6832
  21        3.0497
  22        3.0511
  23        3.3913
  24        3.3914
  25        3.3928
  26        3.3929
  27        3.7323
  28        3.7337
  29        4.6061
  30        4.6089
  31        4.9239
  32        4.9268
  33        5.0923
  34        5.0923
  35        5.0937
  36        5.0938
  37        5.7677
  38        5.7678
  39        5.7692
  40        5.7693
  41        6.0706
  42        6.0732
  43        6.3861
  44        6.3888
  45        6.5739
  46        6.5769
  47        6.6058
  48        6.6072
  49        6.6087
  50        6.6101
  51        7.2349
  52        7.2378
  53        7.7965
  54        7.7991
  55        8.4285
  56        8.4292
  57        8.4312
  58        8.4319
  59        8.4681
  60        8.4708
  61        8.5978
  62        8.5997
  63        8.8903
  64        8.8926
  65        9.5842
  66        9.5858
  67       10.0943
  68       10.0949
 
  0.0000000E+00  0.1666667E+00  0.0000000E+00  0.2314815E-02
   1       -3.3618
   2       -1.9419
   3       -1.2396
   4       -1.2369
   5       -1.2369
   6       -1.2341
   7       -0.5353
   8        0.1609
   9        0.1636
  10        0.1636
  11        0.1664
  12        0.8571
  13        0.8581
  14        0.8603
  15        0.8613
  16        1.5486
  17        1.5514
  18        1.5514
  19        1.5542
  20        2.2396
  21        2.2407
  22        2.2428
  23        2.2439
  24        3.5518
  25        3.6104
  26        3.6115
  27        3.6137
  28        3.6148
  29        4.4722
  30        4.4722
  31        5.5695
  32        5.5725
  33        5.5725
  34        5.5754
  35        5.5926
  36        5.5926
  37        5.7913
  38        5.7914
  39        6.4492
  40        6.4518
  41        6.4518
  42        6.4544
  43        6.5039
  44        6.9684
  45        6.9685
  46        7.1129
  47        7.1129
  48        7.5791
  49        7.5804
  50        7.5825
  51        7.5839
  52        7.6494
  53        7.6516
  54        7.6516
  55        7.6537
  56        7.7705
  57        7.7731
  58        7.7731
  59        7.7757
  60        8.3649
  61        8.3649
  62        8.5588
  63        8.5611
  64        8.5611
  65        8.5634
  66        9.0181
  67        9.0205
  68        9.0221
 
  0.8333333E-01  0.1666667E+00  0.0000000E+00  0.4629630E-02
   1       -3.3469
   2       -1.9271
   3       -1.5743
   4       -1.2222
   5       -1.2222
   6       -0.8710
   7       -0.5208
   8       -0.1708
   9        0.1781
  10        0.1781
  11        0.5248
  12        0.5263
  13        0.5277
  14        1.2187
  15        1.2202
  16        1.2215
  17        1.5658
  18        1.5658
  19        1.9106
  20        1.9116
  21        1.9119
  22        2.5998
  23        2.5998
  24        3.2851
  25        3.2851
  26        3.5659
  27        3.9677
  28        3.9677
  29        4.1620
  30        4.4859
  31        5.2513
  32        5.4969
  33        5.5858
  34        5.5859
  35        5.6072
  36        5.8051
  37        5.9203
  38        5.9288
  39        6.1352
  40        6.1648
  41        6.1648
  42        6.5181
  43        6.7960
  44        6.8087
  45        7.0099
  46        7.1266
  47        7.2621
  48        7.2621
  49        7.2853
  50        7.3368
  51        7.4563
  52        7.4943
  53        7.4943
  54        7.9281
  55        7.9281
  56        7.9490
  57        7.9573
  58        7.9576
  59        8.1174
  60        8.2942
  61        8.3822
  62        8.5824
  63        8.5824
  64        8.6669
  65        8.6995
  66        8.7785
  67        8.8203
  68        8.8206
 
  0.1666667E+00  0.1666667E+00  0.0000000E+00  0.4629630E-02
   1       -3.3023
   2       -1.8841
   3       -1.8819
   4       -1.1783
   5       -1.1783
   6       -0.4787
   7       -0.4769
   8       -0.4751
   9        0.2201
  10        0.2210
  11        0.2224
  12        0.2233
  13        0.9162
  14        0.9172
  15        1.6068
  16        1.6080
  17        1.6092
  18        1.6093
  19        1.6104
  20        1.6116
  21        2.2979
  22        2.9821
  23        2.9821
  24        2.9888
  25        2.9888
  26        3.6078
  27        3.6087
  28        4.3503
  29        4.3503
  30        4.5271
  31        4.9563
  32        4.9586
  33        5.5944
  34        5.5944
  35        5.6509
  36        5.6652
  37        5.6653
  38        5.8451
  39        5.8476
  40        6.2921
  41        6.2935
  42        6.5602
  43        6.5612
  44        6.9684
  45        6.9694
  46        6.9707
  47        6.9717
  48        7.0444
  49        7.0461
  50        7.1655
  51        7.1677
  52        7.1699
  53        7.8827
  54        7.8845
  55        8.3006
  56        8.3017
  57        8.3018
  58        8.3028
  59        8.4058
  60        8.4419
  61        8.4430
  62        8.4726
  63        8.4727
  64        8.4885
  65        8.4904
  66        8.7180
  67        8.7180
  68        9.2659
 
  0.2500000E+00  0.1666667E+00  0.0000000E+00  0.4629630E-02
   1       -3.2281
   2       -2.1629
   3       -1.8094
   4       -1.1051
   5       -1.1051
   6       -0.7540
   7       -0.4041
   8       -0.0566
   9       -0.0544
  10       -0.0529
  11        0.2943
  12        0.2943
  13        0.6418
  14        1.3335
  15        1.3358
  16        1.3372
  17        1.6810
  18        1.6810
  19        2.0253
  20        2.0254
  21        2.7112
  22        2.7139
  23        2.7151
  24        3.0263
  25        3.3984
  26        3.3984
  27        3.6787
  28        4.3849
  29        4.5957
  30        4.6912
  31        4.7600
  32        4.7600
  33        5.0591
  34        5.0591
  35        5.5850
  36        5.7020
  37        5.7020
  38        5.7237
  39        5.7310
  40        5.9151
  41        6.4080
  42        6.4080
  43        6.6316
  44        6.6493
  45        6.7055
  46        6.7056
  47        6.8219
  48        6.9056
  49        7.1158
  50        7.2367
  51        7.2727
  52        7.5675
  53        7.6385
  54        7.7450
  55        7.7450
  56        8.1386
  57        8.2278
  58        8.3907
  59        8.6436
  60        8.6436
  61        8.7018
  62        8.7022
  63        8.7067
  64        8.8210
  65        8.8890
  66        9.3116
  67        9.3116
  68        9.4714
 
  0.3333333E+00  0.1666667E+00  0.0000000E+00  0.4629630E-02
   1       -3.1242
   2       -2.4137
   3       -1.7065
   4       -1.0039
   5       -1.0026
   6       -1.0013
   7       -0.3033
   8       -0.3019
   9       -0.3007
  10        0.3930
  11        0.3955
  12        0.3958
  13        0.3972
  14        1.0905
  15        1.0905
  16        1.7801
  17        1.7817
  18        1.7819
  19        2.4542
  20        2.4679
  21        2.4684
  22        2.4710
  23        2.4717
  24        3.1539
  25        3.7773
  26        3.8200
  27        3.8383
  28        3.8384
  29        4.4526
  30        4.4984
  31        4.4984
  32        4.6919
  33        5.1735
  34        5.1965
  35        5.1965
  36        5.3513
  37        5.7989
  38        5.7990
  39        5.8255
  40        5.8517
  41        5.8518
  42        6.0113
  43        6.4686
  44        6.4686
  45        6.5119
  46        6.6716
  47        6.7309
  48        7.1460
  49        7.1934
  50        7.1935
  51        7.2157
  52        7.3331
  53        7.4051
  54        7.8985
  55        7.9927
  56        7.9960
  57        8.0267
  58        8.5485
  59        8.7521
  60        8.7521
  61        9.1142
  62        9.1291
  63        9.1292
  64        9.2347
  65        9.2379
  66        9.3164
  67        9.3913
  68        9.4251
 
  0.4166667E+00  0.1666667E+00  0.0000000E+00  0.4629630E-02
   1       -2.9907
   2       -2.6354
   3       -1.5743
   4       -1.2222
   5       -0.8710
   6       -0.8710
   7       -0.5205
   8       -0.5205
   9       -0.1711
  10        0.1778
  11        0.5263
  12        0.5263
  13        0.8704
  14        0.8737
  15        0.8743
  16        1.9021
  17        1.9110
  18        1.9113
  19        2.2524
  20        2.2556
  21        2.2557
  22        2.9389
  23        2.9389
  24        3.2739
  25        3.6219
  26        3.9041
  27        3.9554
  28        3.9554
  29        4.2418
  30        4.3046
  31        4.3047
  32        4.6334
  33        4.8155
  34        5.1452
  35        5.3130
  36        5.3130
  37        5.6591
  38        5.6591
  39        5.9245
  40        5.9245
  41        5.9560
  42        6.1351
  43        6.2594
  44        6.2594
  45        6.3012
  46        6.4653
  47        6.6593
  48        6.6593
  49        6.8582
  50        7.1959
  51        7.3442
  52        7.4569
  53        7.5973
  54        7.6859
  55        7.7873
  56        8.4499
  57        8.5844
  58        8.6846
  59        8.8124
  60        8.8809
  61        8.8809
  62        9.0254
  63        9.2169
  64        9.2169
  65        9.4433
  66        9.5821
  67        9.5821
  68        9.6824
 
  0.5000000E+00  0.1666667E+00  0.0000000E+00  0.2314815E-02
   1       -2.8291
   2       -2.8264
   3       -1.4142
   4       -1.4115
   5       -0.7122
   6       -0.7111
   7       -0.7095
   8       -0.7083
   9       -0.0125
  10       -0.0097
  11        0.6837
  12        0.6848
  13        0.6864
  14        0.6875
  15        1.3732
  16        1.3746
  17        2.0671
  18        2.0682
  19        2.0698
  20        2.0710
  21        2.7500
  22        2.7515
  23        3.4340
  24        3.4341
  25        3.4355
  26        3.4356
  27        4.0576
  28        4.0604
  29        4.1147
  30        4.1162
  31        4.7958
  32        4.7959
  33        4.7973
  34        4.7974
  35        4.9651
  36        4.9680
  37        6.0760
  38        6.0773
  39        6.0788
  40        6.0801
  41        6.1135
  42        6.1161
  43        6.1463
  44        6.1464
  45        6.1479
  46        6.1479
  47        6.2850
  48        6.2879
  49        7.0120
  50        7.0147
  51        7.4997
  52        7.5023
  53        7.6069
  54        7.6098
  55        8.0772
  56        8.0789
  57        8.8408
  58        8.8435
  59        8.9316
  60        8.9339
  61        9.0337
  62        9.0346
  63        9.0365
  64        9.0373
  65        9.6253
  66        9.6268
  67       10.0605
  68       10.0635
 
  0.0000000E+00  0.2500000E+00  0.0000000E+00  0.2314815E-02
   1       -3.2875
   2       -2.2218
   3       -1.1664
   4       -1.1636
   5       -1.1636
   6       -1.1609
   7       -0.1155
   8       -0.1132
   9       -0.1126
  10       -0.1126
  11       -0.1097
  12        0.9293
  13        0.9304
  14        0.9325
  15        0.9336
  16        1.9648
  17        1.9672
  18        1.9675
  19        1.9679
  20        1.9683
  21        1.9701
  22        1.9702
  23        1.9718
  24        2.9695
  25        4.0219
  26        4.0229
  27        4.0251
  28        4.0262
  29        4.5408
  30        4.5409
  31        5.0010
  32        5.0038
  33        5.0038
  34        5.0067
  35        5.5300
  36        5.5301
  37        5.6655
  38        5.6655
  39        6.5180
  40        6.5206
  41        6.5206
  42        6.5232
  43        6.7022
  44        6.7022
  45        7.0197
  46        7.0210
  47        7.0231
  48        7.0244
  49        7.2164
  50        7.5086
  51        7.5115
  52        7.5115
  53        7.5122
  54        7.5125
  55        7.5147
  56        7.7304
  57        7.7325
  58        7.7325
  59        7.7345
  60        8.7522
  61        8.7543
  62        8.7543
  63        8.7562
  64        8.7596
  65        8.7598
  66        9.2440
  67        9.2463
  68        9.2479
 