<?xml version="1.0" encoding="ISO-8859-1"?>
<modeling>
 <generator>
  <i name="program" type="string">vasp</i>
  <i name="version" type="string">4.6.28 </i>
  <i name="subversion" type="string">25Jul05 complex  parallel</i>
  <i name="platform" type="string">LinuxIFC</i>
  <i name="date" type="string">2016 10 21</i>
  <i name="time" type="string">16:39:36</i>
 </generator>
 <incar>
  <i type="string" name="PREC">accurate</i>
  <i type="int" name="IALGO">    38</i>
  <i name="EDIFF">      0.00000001</i>
  <i type="int" name="IBRION">    -1</i>
  <i name="ENCUT">    500.00000000</i>
  <i type="logical" name="LREAL"> F  </i>
  <i type="int" name="ISMEAR">     0</i>
  <i name="SIGMA">      0.01000000</i>
  <i type="logical" name="LWAVE"> F  </i>
  <i type="logical" name="LCHARG"> F  </i>
 </incar>
 <kpoints>
  <generation param="Gamma">
   <v type="int" name="divisions">      12      12      12</v>
   <v name="usershift">      0.00000000      0.00000000      0.00000000</v>
   <v name="genvec1">      0.08333333      0.00000000      0.00000000</v>
   <v name="genvec2">      0.00000000      0.08333333      0.00000000</v>
   <v name="genvec3">      0.00000000      0.00000000      0.08333333</v>
   <v name="shift">      0.00000000      0.00000000      0.00000000</v>
  </generation>
  <varray name="kpointlist" >
   <v>       0.00000000      0.00000000      0.00000000</v>
   <v>       0.08333333      0.00000000      0.00000000</v>
   <v>       0.16666667      0.00000000      0.00000000</v>
   <v>       0.25000000      0.00000000      0.00000000</v>
   <v>       0.33333333      0.00000000      0.00000000</v>
   <v>       0.41666667      0.00000000      0.00000000</v>
   <v>       0.50000000      0.00000000      0.00000000</v>
   <v>       0.00000000      0.08333333      0.00000000</v>
   <v>       0.08333333      0.08333333      0.00000000</v>
   <v>       0.16666667      0.08333333      0.00000000</v>
   <v>       0.25000000      0.08333333      0.00000000</v>
   <v>       0.33333333      0.08333333      0.00000000</v>
   <v>       0.41666667      0.08333333      0.00000000</v>
   <v>       0.50000000      0.08333333      0.00000000</v>
   <v>       0.00000000      0.16666667      0.00000000</v>
   <v>       0.08333333      0.16666667      0.00000000</v>
   <v>       0.16666667      0.16666667      0.00000000</v>
   <v>       0.25000000      0.16666667      0.00000000</v>
   <v>       0.33333333      0.16666667      0.00000000</v>
   <v>       0.41666667      0.16666667      0.00000000</v>
   <v>       0.50000000      0.16666667      0.00000000</v>
   <v>       0.00000000      0.25000000      0.00000000</v>
   <v>       0.08333333      0.25000000      0.00000000</v>
   <v>       0.16666667      0.25000000      0.00000000</v>
   <v>       0.25000000      0.25000000      0.00000000</v>
   <v>       0.33333333      0.25000000      0.00000000</v>
   <v>       0.41666667      0.25000000      0.00000000</v>
   <v>       0.50000000      0.25000000      0.00000000</v>
   <v>       0.00000000      0.33333333      0.00000000</v>
   <v>       0.08333333      0.33333333      0.00000000</v>
   <v>       0.16666667      0.33333333      0.00000000</v>
   <v>       0.25000000      0.33333333      0.00000000</v>
   <v>       0.33333333      0.33333333      0.00000000</v>
   <v>       0.41666667      0.33333333      0.00000000</v>
   <v>       0.50000000      0.33333333      0.00000000</v>
   <v>       0.00000000      0.41666667      0.00000000</v>
   <v>       0.08333333      0.41666667      0.00000000</v>
   <v>       0.16666667      0.41666667      0.00000000</v>
   <v>       0.25000000      0.41666667      0.00000000</v>
   <v>       0.33333333      0.41666667      0.00000000</v>
   <v>       0.41666667      0.41666667      0.00000000</v>
   <v>       0.50000000      0.41666667      0.00000000</v>
   <v>       0.00000000      0.50000000      0.00000000</v>
   <v>       0.08333333      0.50000000      0.00000000</v>
   <v>       0.16666667      0.50000000      0.00000000</v>
   <v>       0.25000000      0.50000000      0.00000000</v>
   <v>       0.33333333      0.50000000      0.00000000</v>
   <v>       0.41666667      0.50000000      0.00000000</v>
   <v>       0.50000000      0.50000000      0.00000000</v>
   <v>       0.00000000      0.08333333      0.08333333</v>
   <v>       0.08333333      0.08333333      0.08333333</v>
   <v>       0.16666667      0.08333333      0.08333333</v>
   <v>       0.25000000      0.08333333      0.08333333</v>
   <v>       0.33333333      0.08333333      0.08333333</v>
   <v>       0.41666667      0.08333333      0.08333333</v>
   <v>       0.50000000      0.08333333      0.08333333</v>
   <v>       0.00000000      0.16666667      0.08333333</v>
   <v>       0.08333333      0.16666667      0.08333333</v>
   <v>       0.16666667      0.16666667      0.08333333</v>
   <v>       0.25000000      0.16666667      0.08333333</v>
   <v>       0.33333333      0.16666667      0.08333333</v>
   <v>       0.41666667      0.16666667      0.08333333</v>
   <v>       0.50000000      0.16666667      0.08333333</v>
   <v>       0.00000000      0.25000000      0.08333333</v>
   <v>       0.08333333      0.25000000      0.08333333</v>
   <v>       0.16666667      0.25000000      0.08333333</v>
   <v>       0.25000000      0.25000000      0.08333333</v>
   <v>       0.33333333      0.25000000      0.08333333</v>
   <v>       0.41666667      0.25000000      0.08333333</v>
   <v>       0.50000000      0.25000000      0.08333333</v>
   <v>       0.00000000      0.33333333      0.08333333</v>
   <v>       0.08333333      0.33333333      0.08333333</v>
   <v>       0.16666667      0.33333333      0.08333333</v>
   <v>       0.25000000      0.33333333      0.08333333</v>
   <v>       0.33333333      0.33333333      0.08333333</v>
   <v>       0.41666667      0.33333333      0.08333333</v>
   <v>       0.50000000      0.33333333      0.08333333</v>
   <v>       0.00000000      0.41666667      0.08333333</v>
   <v>       0.08333333      0.41666667      0.08333333</v>
   <v>       0.16666667      0.41666667      0.08333333</v>
   <v>       0.25000000      0.41666667      0.08333333</v>
   <v>       0.33333333      0.41666667      0.08333333</v>
   <v>       0.41666667      0.41666667      0.08333333</v>
   <v>       0.50000000      0.41666667      0.08333333</v>
   <v>       0.00000000      0.50000000      0.08333333</v>
   <v>       0.08333333      0.50000000      0.08333333</v>
   <v>       0.16666667      0.50000000      0.08333333</v>
   <v>       0.25000000      0.50000000      0.08333333</v>
   <v>       0.33333333      0.50000000      0.08333333</v>
   <v>       0.41666667      0.50000000      0.08333333</v>
   <v>       0.50000000      0.50000000      0.08333333</v>
   <v>       0.00000000      0.16666667      0.16666667</v>
   <v>       0.08333333      0.16666667      0.16666667</v>
   <v>       0.16666667      0.16666667      0.16666667</v>
   <v>       0.25000000      0.16666667      0.16666667</v>
   <v>       0.33333333      0.16666667      0.16666667</v>
   <v>       0.41666667      0.16666667      0.16666667</v>
   <v>       0.50000000      0.16666667      0.16666667</v>
   <v>       0.00000000      0.25000000      0.16666667</v>
   <v>       0.08333333      0.25000000      0.16666667</v>
   <v>       0.16666667      0.25000000      0.16666667</v>
   <v>       0.25000000      0.25000000      0.16666667</v>
   <v>       0.33333333      0.25000000      0.16666667</v>
   <v>       0.41666667      0.25000000      0.16666667</v>
   <v>       0.50000000      0.25000000      0.16666667</v>
   <v>       0.00000000      0.33333333      0.16666667</v>
   <v>       0.08333333      0.33333333      0.16666667</v>
   <v>       0.16666667      0.33333333      0.16666667</v>
   <v>       0.25000000      0.33333333      0.16666667</v>
   <v>       0.33333333      0.33333333      0.16666667</v>
   <v>       0.41666667      0.33333333      0.16666667</v>
   <v>       0.50000000      0.33333333      0.16666667</v>
   <v>       0.00000000      0.41666667      0.16666667</v>
   <v>       0.08333333      0.41666667      0.16666667</v>
   <v>       0.16666667      0.41666667      0.16666667</v>
   <v>       0.25000000      0.41666667      0.16666667</v>
   <v>       0.33333333      0.41666667      0.16666667</v>
   <v>       0.41666667      0.41666667      0.16666667</v>
   <v>       0.50000000      0.41666667      0.16666667</v>
   <v>       0.00000000      0.50000000      0.16666667</v>
   <v>       0.08333333      0.50000000      0.16666667</v>
   <v>       0.16666667      0.50000000      0.16666667</v>
   <v>       0.25000000      0.50000000      0.16666667</v>
   <v>       0.33333333      0.50000000      0.16666667</v>
   <v>       0.41666667      0.50000000      0.16666667</v>
   <v>       0.50000000      0.50000000      0.16666667</v>
   <v>       0.00000000      0.25000000      0.25000000</v>
   <v>       0.08333333      0.25000000      0.25000000</v>
   <v>       0.16666667      0.25000000      0.25000000</v>
   <v>       0.25000000      0.25000000      0.25000000</v>
   <v>       0.33333333      0.25000000      0.25000000</v>
   <v>       0.41666667      0.25000000      0.25000000</v>
   <v>       0.50000000      0.25000000      0.25000000</v>
   <v>       0.00000000      0.33333333      0.25000000</v>
   <v>       0.08333333      0.33333333      0.25000000</v>
   <v>       0.16666667      0.33333333      0.25000000</v>
   <v>       0.25000000      0.33333333      0.25000000</v>
   <v>       0.33333333      0.33333333      0.25000000</v>
   <v>       0.41666667      0.33333333      0.25000000</v>
   <v>       0.50000000      0.33333333      0.25000000</v>
   <v>       0.00000000      0.41666667      0.25000000</v>
   <v>       0.08333333      0.41666667      0.25000000</v>
   <v>       0.16666667      0.41666667      0.25000000</v>
   <v>       0.25000000      0.41666667      0.25000000</v>
   <v>       0.33333333      0.41666667      0.25000000</v>
   <v>       0.41666667      0.41666667      0.25000000</v>
   <v>       0.50000000      0.41666667      0.25000000</v>
   <v>       0.00000000      0.50000000      0.25000000</v>
   <v>       0.08333333      0.50000000      0.25000000</v>
   <v>       0.16666667      0.50000000      0.25000000</v>
   <v>       0.25000000      0.50000000      0.25000000</v>
   <v>       0.33333333      0.50000000      0.25000000</v>
   <v>       0.41666667      0.50000000      0.25000000</v>
   <v>       0.50000000      0.50000000      0.25000000</v>
   <v>       0.00000000      0.33333333      0.33333333</v>
   <v>       0.08333333      0.33333333      0.33333333</v>
   <v>       0.16666667      0.33333333      0.33333333</v>
   <v>       0.25000000      0.33333333      0.33333333</v>
   <v>       0.33333333      0.33333333      0.33333333</v>
   <v>       0.41666667      0.33333333      0.33333333</v>
   <v>       0.50000000      0.33333333      0.33333333</v>
   <v>       0.00000000      0.41666667      0.33333333</v>
   <v>       0.08333333      0.41666667      0.33333333</v>
   <v>       0.16666667      0.41666667      0.33333333</v>
   <v>       0.25000000      0.41666667      0.33333333</v>
   <v>       0.33333333      0.41666667      0.33333333</v>
   <v>       0.41666667      0.41666667      0.33333333</v>
   <v>       0.50000000      0.41666667      0.33333333</v>
   <v>       0.00000000      0.50000000      0.33333333</v>
   <v>       0.08333333      0.50000000      0.33333333</v>
   <v>       0.16666667      0.50000000      0.33333333</v>
   <v>       0.25000000      0.50000000      0.33333333</v>
   <v>       0.33333333      0.50000000      0.33333333</v>
   <v>       0.41666667      0.50000000      0.33333333</v>
   <v>       0.50000000      0.50000000      0.33333333</v>
   <v>       0.00000000      0.41666667      0.41666667</v>
   <v>       0.08333333      0.41666667      0.41666667</v>
   <v>       0.16666667      0.41666667      0.41666667</v>
   <v>       0.25000000      0.41666667      0.41666667</v>
   <v>       0.33333333      0.41666667      0.41666667</v>
   <v>       0.41666667      0.41666667      0.41666667</v>
   <v>       0.50000000      0.41666667      0.41666667</v>
   <v>       0.00000000      0.50000000      0.41666667</v>
   <v>       0.08333333      0.50000000      0.41666667</v>
   <v>       0.16666667      0.50000000      0.41666667</v>
   <v>       0.25000000      0.50000000      0.41666667</v>
   <v>       0.33333333      0.50000000      0.41666667</v>
   <v>       0.41666667      0.50000000      0.41666667</v>
   <v>       0.50000000      0.50000000      0.41666667</v>
   <v>       0.00000000      0.50000000      0.50000000</v>
   <v>       0.08333333      0.50000000      0.50000000</v>
   <v>       0.16666667      0.50000000      0.50000000</v>
   <v>       0.25000000      0.50000000      0.50000000</v>
   <v>       0.33333333      0.50000000      0.50000000</v>
   <v>       0.41666667      0.50000000      0.50000000</v>
   <v>       0.50000000      0.50000000      0.50000000</v>
  </varray>
  <varray name="weights" >
   <v>       0.00057870</v>
   <v>       0.00115741</v>
   <v>       0.00115741</v>
   <v>       0.00115741</v>
   <v>       0.00115741</v>
   <v>       0.00115741</v>
   <v>       0.00057870</v>
   <v>       0.00231481</v>
   <v>       0.00462963</v>
   <v>       0.00462963</v>
   <v>       0.00462963</v>
   <v>       0.00462963</v>
   <v>       0.00462963</v>
   <v>       0.00231481</v>
   <v>       0.00231481</v>
   <v>       0.00462963</v>
   <v>       0.00462963</v>
   <v>       0.00462963</v>
   <v>       0.00462963</v>
   <v>       0.00462963</v>
   <v>       0.00231481</v>
   <v>       0.00231481</v>
   <v>       0.00462963</v>
   <v>       0.00462963</v>
   <v>       0.00462963</v>
   <v>       0.00462963</v>
   <v>       0.00462963</v>
   <v>       0.00231481</v>
   <v>       0.00231481</v>
   <v>       0.00462963</v>
   <v>       0.00462963</v>
   <v>       0.00462963</v>
   <v>       0.00462963</v>
   <v>       0.00462963</v>
   <v>       0.00231481</v>
   <v>       0.00231481</v>
   <v>       0.00462963</v>
   <v>       0.00462963</v>
   <v>       0.00462963</v>
   <v>       0.00462963</v>
   <v>       0.00462963</v>
   <v>       0.00231481</v>
   <v>       0.00115741</v>
   <v>       0.00231481</v>
   <v>       0.00231481</v>
   <v>       0.00231481</v>
   <v>       0.00231481</v>
   <v>       0.00231481</v>
   <v>       0.00115741</v>
   <v>       0.00231481</v>
   <v>       0.00462963</v>
   <v>       0.00462963</v>
   <v>       0.00462963</v>
   <v>       0.00462963</v>
   <v>       0.00462963</v>
   <v>       0.00231481</v>
   <v>       0.00462963</v>
   <v>       0.00925926</v>
   <v>       0.00925926</v>
   <v>       0.00925926</v>
   <v>       0.00925926</v>
   <v>       0.00925926</v>
   <v>       0.00462963</v>
   <v>       0.00462963</v>
   <v>       0.00925926</v>
   <v>       0.00925926</v>
   <v>       0.00925926</v>
   <v>       0.00925926</v>
   <v>       0.00925926</v>
   <v>       0.00462963</v>
   <v>       0.00462963</v>
   <v>       0.00925926</v>
   <v>       0.00925926</v>
   <v>       0.00925926</v>
   <v>       0.00925926</v>
   <v>       0.00925926</v>
   <v>       0.00462963</v>
   <v>       0.00462963</v>
   <v>       0.00925926</v>
   <v>       0.00925926</v>
   <v>       0.00925926</v>
   <v>       0.00925926</v>
   <v>       0.00925926</v>
   <v>       0.00462963</v>
   <v>       0.00231481</v>
   <v>       0.00462963</v>
   <v>       0.00462963</v>
   <v>       0.00462963</v>
   <v>       0.00462963</v>
   <v>       0.00462963</v>
   <v>       0.00231481</v>
   <v>       0.00231481</v>
   <v>       0.00462963</v>
   <v>       0.00462963</v>
   <v>       0.00462963</v>
   <v>       0.00462963</v>
   <v>       0.00462963</v>
   <v>       0.00231481</v>
   <v>       0.00462963</v>
   <v>       0.00925926</v>
   <v>       0.00925926</v>
   <v>       0.00925926</v>
   <v>       0.00925926</v>
   <v>       0.00925926</v>
   <v>       0.00462963</v>
   <v>       0.00462963</v>
   <v>       0.00925926</v>
   <v>       0.00925926</v>
   <v>       0.00925926</v>
   <v>       0.00925926</v>
   <v>       0.00925926</v>
   <v>       0.00462963</v>
   <v>       0.00462963</v>
   <v>       0.00925926</v>
   <v>       0.00925926</v>
   <v>       0.00925926</v>
   <v>       0.00925926</v>
   <v>       0.00925926</v>
   <v>       0.00462963</v>
   <v>       0.00231481</v>
   <v>       0.00462963</v>
   <v>       0.00462963</v>
   <v>       0.00462963</v>
   <v>       0.00462963</v>
   <v>       0.00462963</v>
   <v>       0.00231481</v>
   <v>       0.00231481</v>
   <v>       0.00462963</v>
   <v>       0.00462963</v>
   <v>       0.00462963</v>
   <v>       0.00462963</v>
   <v>       0.00462963</v>
   <v>       0.00231481</v>
   <v>       0.00462963</v>
   <v>       0.00925926</v>
   <v>       0.00925926</v>
   <v>       0.00925926</v>
   <v>       0.00925926</v>
   <v>       0.00925926</v>
   <v>       0.00462963</v>
   <v>       0.00462963</v>
   <v>       0.00925926</v>
   <v>       0.00925926</v>
   <v>       0.00925926</v>
   <v>       0.00925926</v>
   <v>       0.00925926</v>
   <v>       0.00462963</v>
   <v>       0.00231481</v>
   <v>       0.00462963</v>
   <v>       0.00462963</v>
   <v>       0.00462963</v>
   <v>       0.00462963</v>
   <v>       0.00462963</v>
   <v>       0.00231481</v>
   <v>       0.00231481</v>
   <v>       0.00462963</v>
   <v>       0.00462963</v>
   <v>       0.00462963</v>
   <v>       0.00462963</v>
   <v>       0.00462963</v>
   <v>       0.00231481</v>
   <v>       0.00462963</v>
   <v>       0.00925926</v>
   <v>       0.00925926</v>
   <v>       0.00925926</v>
   <v>       0.00925926</v>
   <v>       0.00925926</v>
   <v>       0.00462963</v>
   <v>       0.00231481</v>
   <v>       0.00462963</v>
   <v>       0.00462963</v>
   <v>       0.00462963</v>
   <v>       0.00462963</v>
   <v>       0.00462963</v>
   <v>       0.00231481</v>
   <v>       0.00231481</v>
   <v>       0.00462963</v>
   <v>       0.00462963</v>
   <v>       0.00462963</v>
   <v>       0.00462963</v>
   <v>       0.00462963</v>
   <v>       0.00231481</v>
   <v>       0.00231481</v>
   <v>       0.00462963</v>
   <v>       0.00462963</v>
   <v>       0.00462963</v>
   <v>       0.00462963</v>
   <v>       0.00462963</v>
   <v>       0.00231481</v>
   <v>       0.00057870</v>
   <v>       0.00115741</v>
   <v>       0.00115741</v>
   <v>       0.00115741</v>
   <v>       0.00115741</v>
   <v>       0.00115741</v>
   <v>       0.00057870</v>
  </varray>
 </kpoints>
 <parameters>
  <separator name="general" >
   <i type="string" name="SYSTEM">unknown system</i>
   <i type="logical" name="LCOMPAT"> F  </i>
  </separator>
  <separator name="electronic" >
   <i type="string" name="PREC">accura</i>
   <i name="ENMAX">    500.00000000</i>
   <i name="ENAUG">    291.05200000</i>
   <i name="EDIFF">      0.00000001</i>
   <i type="int" name="IALGO">    38</i>
   <i type="int" name="IWAVPR">    10</i>
   <i type="int" name="NBANDS">    65</i>
   <i name="NELECT">     96.00000000</i>
   <separator name="electronic smearing" >
    <i type="int" name="ISMEAR">     0</i>
    <i name="SIGMA">      0.01000000</i>
   </separator>
   <separator name="electronic projectors" >
    <i type="logical" name="LREAL"> F  </i>
    <v name="ROPT">      0.00000000</v>
    <i type="int" name="LMAXPAW">  -100</i>
    <i type="int" name="LMAXMIX">     2</i>
   </separator>
   <separator name="electronic startup" >
    <i type="int" name="ISTART">     0</i>
    <i type="int" name="ICHARG">     2</i>
    <i type="int" name="INIWAV">     1</i>
   </separator>
   <separator name="electronic spin" >
    <i type="int" name="ISPIN">     1</i>
    <i type="logical" name="LNONCOLLINEAR"> F  </i>
    <v name="MAGMOM">      1.00000000      1.00000000      1.00000000      1.00000000      1.00000000      1.00000000      1.00000000      1.00000000      1.00000000      1.00000000      1.00000000      1.00000000      1.00000000      1.00000000      1.00000000      1.00000000      1.00000000      1.00000000      1.00000000      1.00000000
      1.00000000      1.00000000      1.00000000      1.00000000      1.00000000      1.00000000      1.00000000      1.00000000      1.00000000      1.00000000      1.00000000      1.00000000</v>
    <i name="NUPDOWN">     -1.00000000</i>
    <i type="logical" name="LSORBIT"> F  </i>
    <v name="SAXIS">      0.00000000      0.00000000      1.00000000</v>
    <i type="logical" name="LSPIRAL"> F  </i>
    <v name="QSPIRAL">      0.00000000      0.00000000      0.00000000</v>
    <i type="logical" name="LZEROZ"> F  </i>
   </separator>
   <separator name="electronic exchange-correlation" >
    <i type="string" name="GGA">--</i>
    <i type="int" name="VOSKOWN">     0</i>
    <i type="logical" name="LASPH"> F  </i>
    <i type="logical" name="LMETAGGA"> F  </i>
    <i type="string" name="GGA2">--</i>
   </separator>
   <separator name="electronic convergence" >
    <i type="int" name="NELM">    60</i>
    <i type="int" name="NELMDL">    -5</i>
    <i type="int" name="NELMIN">     2</i>
    <i name="ENINI">    500.00000000</i>
    <separator name="electronic convergence detail" >
     <i type="logical" name="LDIAG"> T  </i>
     <i name="WEIMIN">      0.00000000</i>
     <i name="EBREAK">      0.00000000</i>
     <i name="DEPER">      0.30000000</i>
     <i type="int" name="NRMM">     4</i>
     <i name="TIME">      0.10000000</i>
    </separator>
   </separator>
   <separator name="electronic mixer" >
    <i name="AMIX">      0.40000000</i>
    <i name="BMIX">      1.00000000</i>
    <i name="AMIN">      0.10000000</i>
    <i name="AMIX_MAG">      1.60000000</i>
    <i name="BMIX_MAG">      1.00000000</i>
    <separator name="electronic mixer details" >
     <i type="int" name="IMIX">     4</i>
     <i type="int" name="MAXMIX">   -45</i>
     <i name="WC">    100.00000000</i>
     <i type="int" name="INIMIX">     1</i>
     <i type="int" name="MIXPRE">     1</i>
     <i type="int" name="MREMOVE">     5</i>
    </separator>
   </separator>
   <separator name="electronic dipolcorrection" >
    <i type="int" name="IDIPOL">     0</i>
    <i type="logical" name="LDIPOL"> F  </i>
    <v name="DIPOL">   -100.00000000</v>
    <i name="EFIELD">      0.00000000</i>
   </separator>
  </separator>
  <separator name="grids" >
   <i type="int" name="NGX">    64</i>
   <i type="int" name="NGY">    64</i>
   <i type="int" name="NGZ">    64</i>
   <i type="int" name="NGXF">   128</i>
   <i type="int" name="NGYF">   128</i>
   <i type="int" name="NGZF">   128</i>
   <i type="logical" name="ADDGRID"> F  </i>
  </separator>
  <separator name="ionic" >
   <i type="int" name="NSW">     0</i>
   <i type="int" name="IBRION">    -1</i>
   <i type="int" name="ISIF">     2</i>
   <i name="PSTRESS">      0.00000000</i>
   <i name="EDIFFG">      0.00000010</i>
   <i type="int" name="NFREE">     0</i>
   <i name="POTIM">      0.50000000</i>
   <i name="SMASS">     -3.00000000</i>
  </separator>
  <separator name="ionic md" >
   <i name="TEBEG">      0.00010000</i>
   <i name="TEEND">      0.00010000</i>
   <i type="int" name="NBLOCK">     1</i>
   <i type="int" name="KBLOCK">     1</i>
   <i type="int" name="NPACO">   256</i>
   <i name="APACO">     16.00000000</i>
  </separator>
  <separator name="symmetry" >
   <i type="int" name="ISYM">     2</i>
   <i name="SYMPREC">      0.00001000</i>
  </separator>
  <separator name="dos" >
   <i type="logical" name="LORBIT"> F  </i>
   <v name="RWIGS">     -1.00000000</v>
   <i type="int" name="NEDOS">   301</i>
   <i name="EMIN">     10.00000000</i>
   <i name="EMAX">    -10.00000000</i>
  </separator>
  <separator name="writing" >
   <i type="int" name="NWRITE">     2</i>
   <i type="logical" name="LWAVE"> F  </i>
   <i type="logical" name="LCHARG"> F  </i>
   <i type="logical" name="LPARD"> F  </i>
   <i type="logical" name="LVTOT"> F  </i>
   <i type="logical" name="LELF"> F  </i>
   <i type="logical" name="LOPTICS"> F  </i>
   <i name="STM">      0.00000000</i>
  </separator>
  <separator name="performance" >
   <i type="int" name="NPAR">     4</i>
   <i type="int" name="NSIM">     4</i>
   <i type="int" name="NBLK">   256</i>
   <i type="logical" name="LPLANE"> T  </i>
   <i type="logical" name="LCRITICAL_MEM"> F  </i>
   <i type="logical" name="LSCALAPACK"> F  </i>
   <i type="logical" name="LSCALU"> F  </i>
   <i type="logical" name="LASYNC"> F  </i>
  </separator>
  <separator name="miscellaneous" >
   <i type="int" name="IDIOT">     3</i>
   <i type="logical" name="LMUSIC"> F  </i>
   <v name="POMASS">     26.98200000</v>
   <i type="logical" name="LCORR"> T  </i>
  </separator>
  <i type="logical" name="LREAL_COMPAT"> F  </i>
  <i type="logical" name="GGA_COMPAT"> T  </i>
  <i type="logical" name="LBERRY"> F  </i>
  <i type="int" name="ICORELEVEL">     0</i>
  <i type="logical" name="LDAU"> F  </i>
  <i type="int" name="I_CONSTRAINED_M">     0</i>
 </parameters>
 <atominfo>
  <atoms>      32</atoms>
  <types>       1</types>
  <array name="atoms" >
   <dimension dim="1">ion</dimension>
   <field type="string">element</field>
   <field type="int">atomtype</field>
   <set>
    <rc><c>Al</c><c>   1</c></rc>
    <rc><c>Al</c><c>   1</c></rc>
    <rc><c>Al</c><c>   1</c></rc>
    <rc><c>Al</c><c>   1</c></rc>
    <rc><c>Al</c><c>   1</c></rc>
    <rc><c>Al</c><c>   1</c></rc>
    <rc><c>Al</c><c>   1</c></rc>
    <rc><c>Al</c><c>   1</c></rc>
    <rc><c>Al</c><c>   1</c></rc>
    <rc><c>Al</c><c>   1</c></rc>
    <rc><c>Al</c><c>   1</c></rc>
    <rc><c>Al</c><c>   1</c></rc>
    <rc><c>Al</c><c>   1</c></rc>
    <rc><c>Al</c><c>   1</c></rc>
    <rc><c>Al</c><c>   1</c></rc>
    <rc><c>Al</c><c>   1</c></rc>
    <rc><c>Al</c><c>   1</c></rc>
    <rc><c>Al</c><c>   1</c></rc>
    <rc><c>Al</c><c>   1</c></rc>
    <rc><c>Al</c><c>   1</c></rc>
    <rc><c>Al</c><c>   1</c></rc>
    <rc><c>Al</c><c>   1</c></rc>
    <rc><c>Al</c><c>   1</c></rc>
    <rc><c>Al</c><c>   1</c></rc>
    <rc><c>Al</c><c>   1</c></rc>
    <rc><c>Al</c><c>   1</c></rc>
    <rc><c>Al</c><c>   1</c></rc>
    <rc><c>Al</c><c>   1</c></rc>
    <rc><c>Al</c><c>   1</c></rc>
    <rc><c>Al</c><c>   1</c></rc>
    <rc><c>Al</c><c>   1</c></rc>
    <rc><c>Al</c><c>   1</c></rc>
   </set>
  </array>
  <array name="atomtypes" >
   <dimension dim="1">type</dimension>
   <field type="int">atomspertype</field>
   <field type="string">element</field>
   <field>mass</field>
   <field>valence</field>
   <field type="string">pseudopotential</field>
   <set>
    <rc><c>  32</c><c>Al</c><c>     26.98200000</c><c>      3.00000000</c><c> PAW_PBE Al 04Jan2001                   </c></rc>
   </set>
  </array>
 </atominfo>
 <structure name="initialpos" >
  <crystal>
   <varray name="basis" >
    <v>       8.31685112      0.00000000      0.00000000</v>
    <v>       0.00000000      8.31685112      0.00000000</v>
    <v>       0.00000000      0.00000000      8.31685112</v>
   </varray>
   <i name="volume">    575.27669668</i>
   <varray name="rec_basis" >
    <v>       0.12023781      0.00000000      0.00000000</v>
    <v>       0.00000000      0.12023781      0.00000000</v>
    <v>       0.00000000      0.00000000      0.12023781</v>
   </varray>
  </crystal>
  <varray name="positions" >
   <v>       0.25120238      0.25000000      0.00000000</v>
   <v>       0.75000000      0.25000000      0.00000000</v>
   <v>       0.25000000      0.75000000      0.00000000</v>
   <v>       0.75000000      0.75000000      0.00000000</v>
   <v>       0.25000000      0.25000000      0.50000000</v>
   <v>       0.75000000      0.25000000      0.50000000</v>
   <v>       0.25000000      0.75000000      0.50000000</v>
   <v>       0.75000000      0.75000000      0.50000000</v>
   <v>       0.25000000      0.00000000      0.25000000</v>
   <v>       0.75000000      0.00000000      0.25000000</v>
   <v>       0.25000000      0.50000000      0.25000000</v>
   <v>       0.75000000      0.50000000      0.25000000</v>
   <v>       0.25000000      0.00000000      0.75000000</v>
   <v>       0.75000000      0.00000000      0.75000000</v>
   <v>       0.25000000      0.50000000      0.75000000</v>
   <v>       0.75000000      0.50000000      0.75000000</v>
   <v>       0.00000000      0.25000000      0.25000000</v>
   <v>       0.50000000      0.25000000      0.25000000</v>
   <v>       0.00000000      0.75000000      0.25000000</v>
   <v>       0.50000000      0.75000000      0.25000000</v>
   <v>       0.00000000      0.25000000      0.75000000</v>
   <v>       0.50000000      0.25000000      0.75000000</v>
   <v>       0.00000000      0.75000000      0.75000000</v>
   <v>       0.50000000      0.75000000      0.75000000</v>
   <v>       0.00000000      0.00000000      0.00000000</v>
   <v>       0.50000000      0.00000000      0.00000000</v>
   <v>       0.00000000      0.50000000      0.00000000</v>
   <v>       0.50000000      0.50000000      0.00000000</v>
   <v>       0.00000000      0.00000000      0.50000000</v>
   <v>       0.50000000      0.00000000      0.50000000</v>
   <v>       0.00000000      0.50000000      0.50000000</v>
   <v>       0.50000000      0.50000000      0.50000000</v>
  </varray>
 </structure>
 <calculation>
  <scstep>
   <time name="dav">  635.19  636.19</time>
   <time name="total">  636.02  637.02</time>
   <energy>
    <i name="alphaZ">     -5.97872903</i>
    <i name="ewald">  -2286.20769594</i>
    <i name="hartreedc">     -4.52818132</i>
    <i name="XCdc">   -844.52793341</i>
    <i name="pawpsdc">   1137.73615723</i>
    <i name="pawaedc">   -115.16745734</i>
    <i name="eentropy">     -0.00027111</i>
    <i name="bandstr">    522.70077895</i>
    <i name="atom">   1713.22913220</i>
    <i name="e_fr_energy">    117.25580021</i>
    <i name="e_wo_entrp">    117.25607133</i>
    <i name="e_0_energy">    117.25593577</i>
   </energy>
  </scstep>
  <scstep>
   <time name="dav">  714.45  715.53</time>
   <time name="total">  714.49  715.57</time>
   <energy>
    <i name="e_fr_energy">   -106.02615030</i>
    <i name="e_wo_entrp">   -106.02544586</i>
    <i name="e_0_energy">   -106.02579808</i>
   </energy>
  </scstep>
  <scstep>
   <time name="dav">  752.42  753.52</time>
   <time name="total">  752.46  753.56</time>
   <energy>
    <i name="e_fr_energy">   -119.34070944</i>
    <i name="e_wo_entrp">   -119.34016287</i>
    <i name="e_0_energy">   -119.34043615</i>
   </energy>
  </scstep>
  <scstep>
   <time name="dav">  729.53  730.63</time>
   <time name="total">  729.57  730.67</time>
   <energy>
    <i name="e_fr_energy">   -119.64152715</i>
    <i name="e_wo_entrp">   -119.64109376</i>
    <i name="e_0_energy">   -119.64131045</i>
   </energy>
  </scstep>
  <scstep>
   <time name="dav">  725.83  727.01</time>
   <time name="total">  768.12  769.38</time>
   <energy>
    <i name="e_fr_energy">   -119.64570330</i>
    <i name="e_wo_entrp">   -119.64526963</i>
    <i name="e_0_energy">   -119.64548646</i>
   </energy>
  </scstep>
  <scstep>
   <time name="dav">  720.20  721.19</time>
   <time name="total">  744.99  746.02</time>
   <energy>
    <i name="e_fr_energy">   -119.24807965</i>
    <i name="e_wo_entrp">   -119.24762867</i>
    <i name="e_0_energy">   -119.24785416</i>
   </energy>
  </scstep>
  <scstep>
   <time name="dav">  371.17  371.35</time>
   <time name="total">  384.60  384.79</time>
   <energy>
    <i name="e_fr_energy">   -118.95946022</i>
    <i name="e_wo_entrp">   -118.95894125</i>
    <i name="e_0_energy">   -118.95920074</i>
   </energy>
  </scstep>
  <scstep>
   <time name="dav">  288.18  288.42</time>
   <time name="total">  301.36  301.61</time>
   <energy>
    <i name="e_fr_energy">   -118.95942632</i>
    <i name="e_wo_entrp">   -118.95890673</i>
    <i name="e_0_energy">   -118.95916653</i>
   </energy>
  </scstep>
  <scstep>
   <time name="dav">  285.60  285.90</time>
   <time name="total">  298.72  299.02</time>
   <energy>
    <i name="e_fr_energy">   -118.95944574</i>
    <i name="e_wo_entrp">   -118.95892479</i>
    <i name="e_0_energy">   -118.95918526</i>
   </energy>
  </scstep>
  <scstep>
   <time name="dav">  289.84  290.14</time>
   <time name="total">  302.72  303.04</time>
   <energy>
    <i name="e_fr_energy">   -118.95944404</i>
    <i name="e_wo_entrp">   -118.95892305</i>
    <i name="e_0_energy">   -118.95918355</i>
   </energy>
  </scstep>
  <scstep>
   <time name="dav">  285.53  285.82</time>
   <time name="total">  298.42  298.73</time>
   <energy>
    <i name="e_fr_energy">   -118.95944070</i>
    <i name="e_wo_entrp">   -118.95891969</i>
    <i name="e_0_energy">   -118.95918020</i>
   </energy>
  </scstep>
  <scstep>
   <time name="dav">  212.37  212.59</time>
   <time name="total">  224.80  225.03</time>
   <energy>
    <i name="e_fr_energy">   -118.95943959</i>
    <i name="e_wo_entrp">   -118.95891855</i>
    <i name="e_0_energy">   -118.95917907</i>
   </energy>
  </scstep>
  <scstep>
   <time name="dav">  193.12  193.20</time>
   <time name="total">  206.23  206.31</time>
   <energy>
    <i name="e_fr_energy">   -118.95943949</i>
    <i name="e_wo_entrp">   -118.95891846</i>
    <i name="e_0_energy">   -118.95917898</i>
   </energy>
  </scstep>
  <scstep>
   <time name="dav">  189.24  189.31</time>
   <time name="total">  189.71  189.78</time>
   <energy>
    <i name="alphaZ">     -5.97872903</i>
    <i name="ewald">  -2286.20769594</i>
    <i name="hartreedc">     -3.17209892</i>
    <i name="XCdc">   -841.63084955</i>
    <i name="pawpsdc">   1134.04237499</i>
    <i name="pawaedc">   -111.49107616</i>
    <i name="eentropy">     -0.00052103</i>
    <i name="bandstr">    282.25002394</i>
    <i name="atom">   1713.22913220</i>
    <i name="e_fr_energy">   -118.95943950</i>
    <i name="e_wo_entrp">   -118.95891847</i>
    <i name="e_0_energy">   -118.95917899</i>
   </energy>
  </scstep>
  <structure>
   <crystal>
    <varray name="basis" >
     <v>       8.31685112      0.00000000      0.00000000</v>
     <v>       0.00000000      8.31685112      0.00000000</v>
     <v>       0.00000000      0.00000000      8.31685112</v>
    </varray>
    <i name="volume">    575.27669668</i>
    <varray name="rec_basis" >
     <v>       0.12023781      0.00000000      0.00000000</v>
     <v>       0.00000000      0.12023781      0.00000000</v>
     <v>       0.00000000      0.00000000      0.12023781</v>
    </varray>
   </crystal>
   <varray name="positions" >
    <v>       0.25120238      0.25000000      0.00000000</v>
    <v>       0.75000000      0.25000000      0.00000000</v>
    <v>       0.25000000      0.75000000      0.00000000</v>
    <v>       0.75000000      0.75000000      0.00000000</v>
    <v>       0.25000000      0.25000000      0.50000000</v>
    <v>       0.75000000      0.25000000      0.50000000</v>
    <v>       0.25000000      0.75000000      0.50000000</v>
    <v>       0.75000000      0.75000000      0.50000000</v>
    <v>       0.25000000      0.00000000      0.25000000</v>
    <v>       0.75000000      0.00000000      0.25000000</v>
    <v>       0.25000000      0.50000000      0.25000000</v>
    <v>       0.75000000      0.50000000      0.25000000</v>
    <v>       0.25000000      0.00000000      0.75000000</v>
    <v>       0.75000000      0.00000000      0.75000000</v>
    <v>       0.25000000      0.50000000      0.75000000</v>
    <v>       0.75000000      0.50000000      0.75000000</v>
    <v>       0.00000000      0.25000000      0.25000000</v>
    <v>       0.50000000      0.25000000      0.25000000</v>
    <v>       0.00000000      0.75000000      0.25000000</v>
    <v>       0.50000000      0.75000000      0.25000000</v>
    <v>       0.00000000      0.25000000      0.75000000</v>
    <v>       0.50000000      0.25000000      0.75000000</v>
    <v>       0.00000000      0.75000000      0.75000000</v>
    <v>       0.50000000      0.75000000      0.75000000</v>
    <v>       0.00000000      0.00000000      0.00000000</v>
    <v>       0.50000000      0.00000000      0.00000000</v>
    <v>       0.00000000      0.50000000      0.00000000</v>
    <v>       0.50000000      0.50000000      0.00000000</v>
    <v>       0.00000000      0.00000000      0.50000000</v>
    <v>       0.50000000      0.00000000      0.50000000</v>
    <v>       0.00000000      0.50000000      0.50000000</v>
    <v>       0.50000000      0.50000000      0.50000000</v>
   </varray>
  </structure>
  <varray name="forces" >
   <v>      -0.03223241     -0.00000000      0.00000000</v>
   <v>       0.00182557      0.00000000     -0.00000000</v>
   <v>      -0.00029408      0.00000000      0.00000000</v>
   <v>       0.00057040      0.00000000     -0.00000000</v>
   <v>      -0.00029408      0.00000000      0.00000000</v>
   <v>       0.00057040      0.00000000      0.00000000</v>
   <v>       0.00029625     -0.00000000      0.00000000</v>
   <v>      -0.00067233      0.00000000      0.00000000</v>
   <v>      -0.00136941      0.00001319     -0.00001319</v>
   <v>      -0.00057877      0.00000124     -0.00000124</v>
   <v>      -0.00136941     -0.00001319     -0.00001319</v>
   <v>      -0.00057877     -0.00000124     -0.00000124</v>
   <v>      -0.00136941      0.00001319      0.00001319</v>
   <v>      -0.00057877      0.00000124      0.00000124</v>
   <v>      -0.00136941     -0.00001319      0.00001319</v>
   <v>      -0.00057877     -0.00000124      0.00000124</v>
   <v>       0.00470327      0.00000000     -0.00465700</v>
   <v>       0.00481859     -0.00000000      0.00481483</v>
   <v>      -0.00000919      0.00000000      0.00009888</v>
   <v>      -0.00000691     -0.00000000     -0.00009828</v>
   <v>       0.00470327      0.00000000      0.00465700</v>
   <v>       0.00481859      0.00000000     -0.00481483</v>
   <v>      -0.00000919      0.00000000     -0.00009888</v>
   <v>      -0.00000691     -0.00000000      0.00009828</v>
   <v>       0.00470327      0.00465700      0.00000000</v>
   <v>       0.00481859     -0.00481483      0.00000000</v>
   <v>       0.00470327     -0.00465700     -0.00000000</v>
   <v>       0.00481859      0.00481483     -0.00000000</v>
   <v>      -0.00000919     -0.00009888      0.00000000</v>
   <v>      -0.00000691      0.00009828     -0.00000000</v>
   <v>      -0.00000919      0.00009888      0.00000000</v>
   <v>      -0.00000691     -0.00009828      0.00000000</v>
  </varray>
  <varray name="stress" >
   <v>     -55.06723880      0.00000000      0.00000000</v>
   <v>       0.00000000    -55.06938232      0.00000000</v>
   <v>       0.00000000      0.00000000    -55.06938232</v>
  </varray>
  <energy>
   <i name="e_fr_energy">   -118.95943950</i>
   <i name="e_wo_entrp">   -118.95917899</i>
   <i name="e_0_energy">     -0.00052103</i>
  </energy>
  <eigenvalues>
   <array>
    <dimension dim="1">band</dimension>
    <dimension dim="2">kpoint</dimension>
    <dimension dim="3">spin</dimension>
    <field>eigene</field>
    <field>occ</field>
    <set>
     <set comment="spin 1">
      <set comment="kpoint 1">
       <r>  -3.4212  1.0000</r>
       <r>  -1.2991  1.0000</r>
       <r>  -1.2955  1.0000</r>
       <r>  -1.2955  1.0000</r>
       <r>  -1.2955  1.0000</r>
       <r>  -1.2955  1.0000</r>
       <r>  -1.2919  1.0000</r>
       <r>   0.7952  1.0000</r>
       <r>   0.7996  1.0000</r>
       <r>   0.7996  1.0000</r>
       <r>   0.8012  1.0000</r>
       <r>   0.8013  1.0000</r>
       <r>   0.8013  1.0000</r>
       <r>   0.8013  1.0000</r>
       <r>   0.8013  1.0000</r>
       <r>   0.8015  1.0000</r>
       <r>   0.8031  1.0000</r>
       <r>   0.8031  1.0000</r>
       <r>   0.8075  1.0000</r>
       <r>   2.8645  1.0000</r>
       <r>   2.8648  1.0000</r>
       <r>   2.8648  1.0000</r>
       <r>   2.8650  1.0000</r>
       <r>   2.8782  1.0000</r>
       <r>   2.8784  1.0000</r>
       <r>   2.8784  1.0000</r>
       <r>   2.8787  1.0000</r>
       <r>   4.4173  1.0000</r>
       <r>   4.4173  1.0000</r>
       <r>   4.4173  1.0000</r>
       <r>   5.5342  1.0000</r>
       <r>   5.5342  1.0000</r>
       <r>   5.5342  1.0000</r>
       <r>   6.3925  1.0000</r>
       <r>   6.3925  1.0000</r>
       <r>   6.3966  1.0000</r>
       <r>   6.3966  1.0000</r>
       <r>   6.3968  1.0000</r>
       <r>   6.3968  1.0000</r>
       <r>   6.3968  1.0000</r>
       <r>   6.3968  1.0000</r>
       <r>   6.3969  1.0000</r>
       <r>   6.3969  1.0000</r>
       <r>   6.4010  1.0000</r>
       <r>   6.4010  1.0000</r>
       <r>   7.4448  0.0000</r>
       <r>   7.4488  0.0000</r>
       <r>   7.4488  0.0000</r>
       <r>   7.4488  0.0000</r>
       <r>   7.4488  0.0000</r>
       <r>   7.4527  0.0000</r>
       <r>   7.7804  0.0000</r>
       <r>   7.7813  0.0000</r>
       <r>   7.7813  0.0000</r>
       <r>   7.7813  0.0000</r>
       <r>   7.7813  0.0000</r>
       <r>   7.7822  0.0000</r>
       <r>   8.3750  0.0000</r>
       <r>   8.3753  0.0000</r>
       <r>   8.3773  0.0000</r>
       <r>   8.3789  0.0000</r>
       <r>   8.3790  0.0000</r>
       <r>   8.3790  0.0000</r>
       <r>   8.3790  0.0000</r>
       <r>   8.3791  0.0000</r>
       <r>   8.3806  0.0000</r>
       <r>   8.3827  0.0000</r>
       <r>   8.3830  0.0000</r>
      </set>
      <set comment="kpoint 2">
       <r>  -3.4063  1.0000</r>
       <r>  -1.6330  1.0000</r>
       <r>  -1.2809  1.0000</r>
       <r>  -1.2808  1.0000</r>
       <r>  -1.2808  1.0000</r>
       <r>  -1.2808  1.0000</r>
       <r>  -0.9295  1.0000</r>
       <r>   0.4683  1.0000</r>
       <r>   0.4683  1.0000</r>
       <r>   0.4683  1.0000</r>
       <r>   0.4683  1.0000</r>
       <r>   0.8158  1.0000</r>
       <r>   0.8158  1.0000</r>
       <r>   0.8158  1.0000</r>
       <r>   0.8158  1.0000</r>
       <r>   1.1625  1.0000</r>
       <r>   1.1625  1.0000</r>
       <r>   1.1625  1.0000</r>
       <r>   1.1625  1.0000</r>
       <r>   2.5426  1.0000</r>
       <r>   2.5426  1.0000</r>
       <r>   2.5426  1.0000</r>
       <r>   2.5426  1.0000</r>
       <r>   3.2284  1.0000</r>
       <r>   3.2284  1.0000</r>
       <r>   3.2284  1.0000</r>
       <r>   3.2284  1.0000</r>
       <r>   4.1063  1.0000</r>
       <r>   4.4310  1.0000</r>
       <r>   4.4310  1.0000</r>
       <r>   5.5488  1.0000</r>
       <r>   5.5488  1.0000</r>
       <r>   5.8712  1.0000</r>
       <r>   6.0802  1.0000</r>
       <r>   6.0802  1.0000</r>
       <r>   6.1066  1.0000</r>
       <r>   6.1067  1.0000</r>
       <r>   6.1067  1.0000</r>
       <r>   6.1067  1.0000</r>
       <r>   6.4105  1.0000</r>
       <r>   6.4105  1.0000</r>
       <r>   6.4105  1.0000</r>
       <r>   6.4105  1.0000</r>
       <r>   6.7410  1.0000</r>
       <r>   6.7410  1.0000</r>
       <r>   7.2499  0.0000</r>
       <r>   7.2500  0.0000</r>
       <r>   7.5665  0.0000</r>
       <r>   7.5665  0.0000</r>
       <r>   7.5665  0.0000</r>
       <r>   7.5665  0.0000</r>
       <r>   7.9931  0.0000</r>
       <r>   7.9933  0.0000</r>
       <r>   7.9933  0.0000</r>
       <r>   7.9933  0.0000</r>
       <r>   8.0060  0.0000</r>
       <r>   8.0061  0.0000</r>
       <r>   8.0621  0.0000</r>
       <r>   8.0621  0.0000</r>
       <r>   8.0622  0.0000</r>
       <r>   8.0622  0.0000</r>
       <r>   8.1026  0.0000</r>
       <r>   8.1026  0.0000</r>
       <r>   8.1026  0.0000</r>
       <r>   8.1026  0.0000</r>
       <r>   8.7233  0.0000</r>
       <r>   8.7233  0.0000</r>
       <r>   8.7233  0.0000</r>
      </set>
      <set comment="kpoint 3">
       <r>  -3.3618  1.0000</r>
       <r>  -1.9419  1.0000</r>
       <r>  -1.2369  1.0000</r>
       <r>  -1.2369  1.0000</r>
       <r>  -1.2369  1.0000</r>
       <r>  -1.2369  1.0000</r>
       <r>  -0.5353  1.0000</r>
       <r>   0.1636  1.0000</r>
       <r>   0.1636  1.0000</r>
       <r>   0.1636  1.0000</r>
       <r>   0.1636  1.0000</r>
       <r>   0.8592  1.0000</r>
       <r>   0.8592  1.0000</r>
       <r>   0.8592  1.0000</r>
       <r>   0.8592  1.0000</r>
       <r>   1.5514  1.0000</r>
       <r>   1.5514  1.0000</r>
       <r>   1.5514  1.0000</r>
       <r>   1.5514  1.0000</r>
       <r>   2.2418  1.0000</r>
       <r>   2.2418  1.0000</r>
       <r>   2.2418  1.0000</r>
       <r>   2.2418  1.0000</r>
       <r>   3.5518  1.0000</r>
       <r>   3.6126  1.0000</r>
       <r>   3.6126  1.0000</r>
       <r>   3.6126  1.0000</r>
       <r>   3.6126  1.0000</r>
       <r>   4.4722  1.0000</r>
       <r>   4.4722  1.0000</r>
       <r>   5.5723  1.0000</r>
       <r>   5.5725  1.0000</r>
       <r>   5.5725  1.0000</r>
       <r>   5.5725  1.0000</r>
       <r>   5.5926  1.0000</r>
       <r>   5.5928  1.0000</r>
       <r>   5.7913  1.0000</r>
       <r>   5.7913  1.0000</r>
       <r>   6.4518  1.0000</r>
       <r>   6.4518  1.0000</r>
       <r>   6.4518  1.0000</r>
       <r>   6.4518  1.0000</r>
       <r>   6.5039  1.0000</r>
       <r>   6.9685  1.0000</r>
       <r>   6.9685  1.0000</r>
       <r>   7.1129  1.0000</r>
       <r>   7.1129  1.0000</r>
       <r>   7.5814  0.0000</r>
       <r>   7.5814  0.0000</r>
       <r>   7.5814  0.0000</r>
       <r>   7.5815  0.0000</r>
       <r>   7.6516  0.0000</r>
       <r>   7.6516  0.0000</r>
       <r>   7.6516  0.0000</r>
       <r>   7.6517  0.0000</r>
       <r>   7.7731  0.0000</r>
       <r>   7.7731  0.0000</r>
       <r>   7.7731  0.0000</r>
       <r>   7.7731  0.0000</r>
       <r>   8.3649  0.0000</r>
       <r>   8.3649  0.0000</r>
       <r>   8.5611  0.0000</r>
       <r>   8.5611  0.0000</r>
       <r>   8.5611  0.0000</r>
       <r>   8.5611  0.0000</r>
       <r>   9.0193  0.0000</r>
       <r>   9.0195  0.0000</r>
       <r>   9.0209  0.0000</r>
      </set>
      <set comment="kpoint 4">
       <r>  -3.2875  1.0000</r>
       <r>  -2.2218  1.0000</r>
       <r>  -1.1636  1.0000</r>
       <r>  -1.1636  1.0000</r>
       <r>  -1.1636  1.0000</r>
       <r>  -1.1636  1.0000</r>
       <r>  -0.1155  1.0000</r>
       <r>  -0.1126  1.0000</r>
       <r>  -0.1126  1.0000</r>
       <r>  -0.1126  1.0000</r>
       <r>  -0.1104  1.0000</r>
       <r>   0.9315  1.0000</r>
       <r>   0.9315  1.0000</r>
       <r>   0.9315  1.0000</r>
       <r>   0.9315  1.0000</r>
       <r>   1.9651  1.0000</r>
       <r>   1.9671  1.0000</r>
       <r>   1.9671  1.0000</r>
       <r>   1.9679  1.0000</r>
       <r>   1.9691  1.0000</r>
       <r>   1.9699  1.0000</r>
       <r>   1.9699  1.0000</r>
       <r>   1.9718  1.0000</r>
       <r>   2.9695  1.0000</r>
       <r>   4.0240  1.0000</r>
       <r>   4.0240  1.0000</r>
       <r>   4.0240  1.0000</r>
       <r>   4.0240  1.0000</r>
       <r>   4.5408  1.0000</r>
       <r>   4.5408  1.0000</r>
       <r>   5.0038  1.0000</r>
       <r>   5.0038  1.0000</r>
       <r>   5.0038  1.0000</r>
       <r>   5.0039  1.0000</r>
       <r>   5.5301  1.0000</r>
       <r>   5.5301  1.0000</r>
       <r>   5.6655  1.0000</r>
       <r>   5.6655  1.0000</r>
       <r>   6.5206  1.0000</r>
       <r>   6.5206  1.0000</r>
       <r>   6.5206  1.0000</r>
       <r>   6.5206  1.0000</r>
       <r>   6.7022  1.0000</r>
       <r>   6.7022  1.0000</r>
       <r>   7.0220  1.0000</r>
       <r>   7.0220  1.0000</r>
       <r>   7.0220  1.0000</r>
       <r>   7.0220  1.0000</r>
       <r>   7.2164  0.0000</r>
       <r>   7.5097  0.0000</r>
       <r>   7.5097  0.0000</r>
       <r>   7.5115  0.0000</r>
       <r>   7.5115  0.0000</r>
       <r>   7.5143  0.0000</r>
       <r>   7.5143  0.0000</r>
       <r>   7.7325  0.0000</r>
       <r>   7.7325  0.0000</r>
       <r>   7.7325  0.0000</r>
       <r>   7.7325  0.0000</r>
       <r>   8.7539  0.0000</r>
       <r>   8.7540  0.0000</r>
       <r>   8.7543  0.0000</r>
       <r>   8.7543  0.0000</r>
       <r>   8.7599  0.0000</r>
       <r>   8.7600  0.0000</r>
       <r>   9.2464  0.0000</r>
       <r>   9.2464  0.0000</r>
       <r>   9.2464  0.0000</r>
      </set>
      <set comment="kpoint 5">
       <r>  -3.1836  1.0000</r>
       <r>  -2.4728  1.0000</r>
       <r>  -1.0612  1.0000</r>
       <r>  -1.0611  1.0000</r>
       <r>  -1.0611  1.0000</r>
       <r>  -1.0611  1.0000</r>
       <r>  -0.3601  1.0000</r>
       <r>  -0.3601  1.0000</r>
       <r>  -0.3601  1.0000</r>
       <r>  -0.3601  1.0000</r>
       <r>   0.3364  1.0000</r>
       <r>   1.0326  1.0000</r>
       <r>   1.0326  1.0000</r>
       <r>   1.0326  1.0000</r>
       <r>   1.0326  1.0000</r>
       <r>   1.7246  1.0000</r>
       <r>   1.7246  1.0000</r>
       <r>   1.7246  1.0000</r>
       <r>   1.7246  1.0000</r>
       <r>   2.3971  1.0000</r>
       <r>   2.4115  1.0000</r>
       <r>   2.4115  1.0000</r>
       <r>   2.4115  1.0000</r>
       <r>   2.4116  1.0000</r>
       <r>   4.4421  1.0000</r>
       <r>   4.4421  1.0000</r>
       <r>   4.4421  1.0000</r>
       <r>   4.4421  1.0000</r>
       <r>   4.4623  1.0000</r>
       <r>   4.4623  1.0000</r>
       <r>   4.4623  1.0000</r>
       <r>   4.4623  1.0000</r>
       <r>   4.6370  1.0000</r>
       <r>   4.6370  1.0000</r>
       <r>   5.2964  1.0000</r>
       <r>   5.2964  1.0000</r>
       <r>   5.7675  1.0000</r>
       <r>   5.7675  1.0000</r>
       <r>   6.4599  1.0000</r>
       <r>   6.4603  1.0000</r>
       <r>   6.4680  1.0000</r>
       <r>   6.4680  1.0000</r>
       <r>   6.4680  1.0000</r>
       <r>   6.4685  1.0000</r>
       <r>   6.6169  1.0000</r>
       <r>   6.6169  1.0000</r>
       <r>   6.6169  1.0000</r>
       <r>   6.6169  1.0000</r>
       <r>   7.2774  0.0000</r>
       <r>   7.2774  0.0000</r>
       <r>   7.2774  0.0000</r>
       <r>   7.2774  0.0000</r>
       <r>   7.8353  0.0000</r>
       <r>   7.8353  0.0000</r>
       <r>   7.8353  0.0000</r>
       <r>   7.8353  0.0000</r>
       <r>   7.9398  0.0000</r>
       <r>   7.9398  0.0000</r>
       <r>   7.9709  0.0000</r>
       <r>   8.5160  0.0000</r>
       <r>   8.5160  0.0000</r>
       <r>   8.5160  0.0000</r>
       <r>   8.5160  0.0000</r>
       <r>   9.1798  0.0000</r>
       <r>   9.1798  0.0000</r>
       <r>   9.9219  0.0000</r>
       <r>   9.9234  0.0000</r>
       <r>   9.9287  0.0000</r>
      </set>
      <set comment="kpoint 6">
       <r>  -3.0500  1.0000</r>
       <r>  -2.6945  1.0000</r>
       <r>  -0.9295  1.0000</r>
       <r>  -0.9295  1.0000</r>
       <r>  -0.9295  1.0000</r>
       <r>  -0.9295  1.0000</r>
       <r>  -0.5789  1.0000</r>
       <r>  -0.5789  1.0000</r>
       <r>  -0.5789  1.0000</r>
       <r>  -0.5789  1.0000</r>
       <r>   0.8131  1.0000</r>
       <r>   1.1626  1.0000</r>
       <r>   1.1626  1.0000</r>
       <r>   1.1626  1.0000</r>
       <r>   1.1626  1.0000</r>
       <r>   1.5087  1.0000</r>
       <r>   1.5087  1.0000</r>
       <r>   1.5087  1.0000</r>
       <r>   1.5087  1.0000</r>
       <r>   1.8449  1.0000</r>
       <r>   2.8817  1.0000</r>
       <r>   2.8817  1.0000</r>
       <r>   2.8817  1.0000</r>
       <r>   2.8818  1.0000</r>
       <r>   3.8987  1.0000</r>
       <r>   3.8987  1.0000</r>
       <r>   3.8987  1.0000</r>
       <r>   3.8987  1.0000</r>
       <r>   4.7605  1.0000</r>
       <r>   4.7605  1.0000</r>
       <r>   4.9269  1.0000</r>
       <r>   4.9269  1.0000</r>
       <r>   4.9269  1.0000</r>
       <r>   4.9269  1.0000</r>
       <r>   5.0902  1.0000</r>
       <r>   5.0902  1.0000</r>
       <r>   5.8981  1.0000</r>
       <r>   5.8982  1.0000</r>
       <r>   5.9315  1.0000</r>
       <r>   5.9315  1.0000</r>
       <r>   5.9315  1.0000</r>
       <r>   5.9316  1.0000</r>
       <r>   6.2451  1.0000</r>
       <r>   6.2451  1.0000</r>
       <r>   6.7407  1.0000</r>
       <r>   6.7407  1.0000</r>
       <r>   6.7407  1.0000</r>
       <r>   6.7407  1.0000</r>
       <r>   7.0710  1.0000</r>
       <r>   7.0710  1.0000</r>
       <r>   7.0710  1.0000</r>
       <r>   7.0710  1.0000</r>
       <r>   7.9645  0.0000</r>
       <r>   7.9645  0.0000</r>
       <r>   7.9645  0.0000</r>
       <r>   7.9645  0.0000</r>
       <r>   8.3048  0.0000</r>
       <r>   8.3048  0.0000</r>
       <r>   8.3048  0.0000</r>
       <r>   8.3048  0.0000</r>
       <r>   8.3949  0.0000</r>
       <r>   8.3949  0.0000</r>
       <r>   8.7571  0.0000</r>
       <r>   9.3882  0.0000</r>
       <r>   9.3882  0.0000</r>
       <r>   9.6215  0.0000</r>
       <r>   9.6215  0.0000</r>
       <r>  10.3775  0.0000</r>
      </set>
      <set comment="kpoint 7">
       <r>  -2.8883  1.0000</r>
       <r>  -2.8856  1.0000</r>
       <r>  -0.7725  1.0000</r>
       <r>  -0.7695  1.0000</r>
       <r>  -0.7695  1.0000</r>
       <r>  -0.7688  1.0000</r>
       <r>  -0.7686  1.0000</r>
       <r>  -0.7679  1.0000</r>
       <r>  -0.7679  1.0000</r>
       <r>  -0.7649  1.0000</r>
       <r>   1.3138  1.0000</r>
       <r>   1.3164  1.0000</r>
       <r>   1.3200  1.0000</r>
       <r>   1.3201  1.0000</r>
       <r>   1.3201  1.0000</r>
       <r>   1.3209  1.0000</r>
       <r>   1.3217  1.0000</r>
       <r>   1.3225  1.0000</r>
       <r>   1.3225  1.0000</r>
       <r>   1.3250  1.0000</r>
       <r>   3.3767  1.0000</r>
       <r>   3.3771  1.0000</r>
       <r>   3.3771  1.0000</r>
       <r>   3.3777  1.0000</r>
       <r>   3.3780  1.0000</r>
       <r>   3.3786  1.0000</r>
       <r>   3.3786  1.0000</r>
       <r>   3.3791  1.0000</r>
       <r>   4.9102  1.0000</r>
       <r>   4.9102  1.0000</r>
       <r>   4.9130  1.0000</r>
       <r>   4.9130  1.0000</r>
       <r>   5.4159  1.0000</r>
       <r>   5.4159  1.0000</r>
       <r>   5.4166  1.0000</r>
       <r>   5.4167  1.0000</r>
       <r>   5.4173  1.0000</r>
       <r>   5.4175  1.0000</r>
       <r>   5.4181  1.0000</r>
       <r>   5.4181  1.0000</r>
       <r>   6.0559  1.0000</r>
       <r>   6.0567  1.0000</r>
       <r>   6.0585  1.0000</r>
       <r>   6.0593  1.0000</r>
       <r>   6.8898  1.0000</r>
       <r>   6.8898  1.0000</r>
       <r>   6.8908  1.0000</r>
       <r>   6.8920  1.0000</r>
       <r>   6.8922  1.0000</r>
       <r>   6.8933  1.0000</r>
       <r>   6.8943  1.0000</r>
       <r>   6.8943  1.0000</r>
       <r>   8.1187  0.0000</r>
       <r>   8.1199  0.0000</r>
       <r>   8.1199  0.0000</r>
       <r>   8.1200  0.0000</r>
       <r>   8.1219  0.0000</r>
       <r>   8.1220  0.0000</r>
       <r>   8.1220  0.0000</r>
       <r>   8.1232  0.0000</r>
       <r>   8.8765  0.0000</r>
       <r>   8.8765  0.0000</r>
       <r>   8.8788  0.0000</r>
       <r>   8.8788  0.0000</r>
       <r>   9.5705  0.0000</r>
       <r>   9.5721  0.0000</r>
       <r>  10.0798  0.0000</r>
       <r>  10.0817  0.0000</r>
      </set>
      <set comment="kpoint 8">
       <r>  -3.4063  1.0000</r>
       <r>  -1.6330  1.0000</r>
       <r>  -1.2836  1.0000</r>
       <r>  -1.2808  1.0000</r>
       <r>  -1.2808  1.0000</r>
       <r>  -1.2781  1.0000</r>
       <r>  -0.9295  1.0000</r>
       <r>   0.4655  1.0000</r>
       <r>   0.4683  1.0000</r>
       <r>   0.4683  1.0000</r>
       <r>   0.4711  1.0000</r>
       <r>   0.8137  1.0000</r>
       <r>   0.8147  1.0000</r>
       <r>   0.8169  1.0000</r>
       <r>   0.8179  1.0000</r>
       <r>   1.1597  1.0000</r>
       <r>   1.1625  1.0000</r>
       <r>   1.1625  1.0000</r>
       <r>   1.1652  1.0000</r>
       <r>   2.5405  1.0000</r>
       <r>   2.5416  1.0000</r>
       <r>   2.5437  1.0000</r>
       <r>   2.5448  1.0000</r>
       <r>   3.2262  1.0000</r>
       <r>   3.2273  1.0000</r>
       <r>   3.2295  1.0000</r>
       <r>   3.2305  1.0000</r>
       <r>   4.1063  1.0000</r>
       <r>   4.4310  1.0000</r>
       <r>   4.4310  1.0000</r>
       <r>   5.5488  1.0000</r>
       <r>   5.5488  1.0000</r>
       <r>   5.8712  1.0000</r>
       <r>   6.0800  1.0000</r>
       <r>   6.0802  1.0000</r>
       <r>   6.1037  1.0000</r>
       <r>   6.1066  1.0000</r>
       <r>   6.1066  1.0000</r>
       <r>   6.1097  1.0000</r>
       <r>   6.4079  1.0000</r>
       <r>   6.4105  1.0000</r>
       <r>   6.4105  1.0000</r>
       <r>   6.4131  1.0000</r>
       <r>   6.7410  1.0000</r>
       <r>   6.7410  1.0000</r>
       <r>   7.2499  0.0000</r>
       <r>   7.2500  0.0000</r>
       <r>   7.5641  0.0000</r>
       <r>   7.5665  0.0000</r>
       <r>   7.5666  0.0000</r>
       <r>   7.5689  0.0000</r>
       <r>   7.9917  0.0000</r>
       <r>   7.9932  0.0000</r>
       <r>   7.9933  0.0000</r>
       <r>   7.9949  0.0000</r>
       <r>   8.0060  0.0000</r>
       <r>   8.0060  0.0000</r>
       <r>   8.0596  0.0000</r>
       <r>   8.0622  0.0000</r>
       <r>   8.0622  0.0000</r>
       <r>   8.0648  0.0000</r>
       <r>   8.1000  0.0000</r>
       <r>   8.1016  0.0000</r>
       <r>   8.1036  0.0000</r>
       <r>   8.1052  0.0000</r>
       <r>   8.7212  0.0000</r>
       <r>   8.7233  0.0000</r>
       <r>   8.7258  0.0000</r>
      </set>
      <set comment="kpoint 9">
       <r>  -3.3915  1.0000</r>
       <r>  -1.6195  1.0000</r>
       <r>  -1.6172  1.0000</r>
       <r>  -1.2662  1.0000</r>
       <r>  -1.2662  1.0000</r>
       <r>  -0.9160  1.0000</r>
       <r>  -0.9138  1.0000</r>
       <r>   0.1346  1.0000</r>
       <r>   0.4812  1.0000</r>
       <r>   0.4822  1.0000</r>
       <r>   0.4835  1.0000</r>
       <r>   0.4844  1.0000</r>
       <r>   0.8297  1.0000</r>
       <r>   0.8307  1.0000</r>
       <r>   1.1753  1.0000</r>
       <r>   1.1762  1.0000</r>
       <r>   1.1776  1.0000</r>
       <r>   1.1785  1.0000</r>
       <r>   1.5228  1.0000</r>
       <r>   2.2131  1.0000</r>
       <r>   2.2131  1.0000</r>
       <r>   2.8943  1.0000</r>
       <r>   2.8943  1.0000</r>
       <r>   2.9059  1.0000</r>
       <r>   2.9059  1.0000</r>
       <r>   3.5843  1.0000</r>
       <r>   3.5843  1.0000</r>
       <r>   4.1198  1.0000</r>
       <r>   4.1206  1.0000</r>
       <r>   4.4447  1.0000</r>
       <r>   5.5634  1.0000</r>
       <r>   5.7871  1.0000</r>
       <r>   5.7893  1.0000</r>
       <r>   5.8852  1.0000</r>
       <r>   5.8860  1.0000</r>
       <r>   6.0926  1.0000</r>
       <r>   6.0950  1.0000</r>
       <r>   6.0987  1.0000</r>
       <r>   6.0990  1.0000</r>
       <r>   6.1437  1.0000</r>
       <r>   6.1437  1.0000</r>
       <r>   6.4506  1.0000</r>
       <r>   6.4520  1.0000</r>
       <r>   6.7535  1.0000</r>
       <r>   6.7560  1.0000</r>
       <r>   7.2827  0.0000</r>
       <r>   7.2846  0.0000</r>
       <r>   7.5490  0.0000</r>
       <r>   7.5509  0.0000</r>
       <r>   7.7454  0.0000</r>
       <r>   7.7831  0.0000</r>
       <r>   7.7840  0.0000</r>
       <r>   7.7853  0.0000</r>
       <r>   7.7862  0.0000</r>
       <r>   7.8023  0.0000</r>
       <r>   7.8023  0.0000</r>
       <r>   8.0372  0.0000</r>
       <r>   8.0382  0.0000</r>
       <r>   8.0857  0.0000</r>
       <r>   8.0857  0.0000</r>
       <r>   8.3006  0.0000</r>
       <r>   8.3024  0.0000</r>
       <r>   8.4056  0.0000</r>
       <r>   8.4075  0.0000</r>
       <r>   8.4466  0.0000</r>
       <r>   8.4477  0.0000</r>
       <r>   8.4479  0.0000</r>
       <r>   8.4489  0.0000</r>
      </set>
      <set comment="kpoint 10">
       <r>  -3.3469  1.0000</r>
       <r>  -1.9271  1.0000</r>
       <r>  -1.5743  1.0000</r>
       <r>  -1.2222  1.0000</r>
       <r>  -1.2222  1.0000</r>
       <r>  -0.8710  1.0000</r>
       <r>  -0.5208  1.0000</r>
       <r>  -0.1707  1.0000</r>
       <r>   0.1781  1.0000</r>
       <r>   0.1781  1.0000</r>
       <r>   0.5256  1.0000</r>
       <r>   0.5263  1.0000</r>
       <r>   0.5269  1.0000</r>
       <r>   1.2194  1.0000</r>
       <r>   1.2202  1.0000</r>
       <r>   1.2207  1.0000</r>
       <r>   1.5658  1.0000</r>
       <r>   1.5658  1.0000</r>
       <r>   1.9106  1.0000</r>
       <r>   1.9116  1.0000</r>
       <r>   1.9119  1.0000</r>
       <r>   2.5998  1.0000</r>
       <r>   2.5998  1.0000</r>
       <r>   3.2851  1.0000</r>
       <r>   3.2851  1.0000</r>
       <r>   3.5659  1.0000</r>
       <r>   3.9677  1.0000</r>
       <r>   3.9677  1.0000</r>
       <r>   4.1620  1.0000</r>
       <r>   4.4859  1.0000</r>
       <r>   5.2514  1.0000</r>
       <r>   5.4969  1.0000</r>
       <r>   5.5858  1.0000</r>
       <r>   5.5858  1.0000</r>
       <r>   5.6073  1.0000</r>
       <r>   5.8051  1.0000</r>
       <r>   5.9202  1.0000</r>
       <r>   5.9290  1.0000</r>
       <r>   6.1352  1.0000</r>
       <r>   6.1648  1.0000</r>
       <r>   6.1648  1.0000</r>
       <r>   6.5181  1.0000</r>
       <r>   6.7960  1.0000</r>
       <r>   6.8087  1.0000</r>
       <r>   7.0099  1.0000</r>
       <r>   7.1266  0.9920</r>
       <r>   7.2620  0.0000</r>
       <r>   7.2621  0.0000</r>
       <r>   7.2854  0.0000</r>
       <r>   7.3368  0.0000</r>
       <r>   7.4563  0.0000</r>
       <r>   7.4942  0.0000</r>
       <r>   7.4942  0.0000</r>
       <r>   7.9279  0.0000</r>
       <r>   7.9281  0.0000</r>
       <r>   7.9494  0.0000</r>
       <r>   7.9573  0.0000</r>
       <r>   7.9574  0.0000</r>
       <r>   8.1174  0.0000</r>
       <r>   8.2942  0.0000</r>
       <r>   8.3821  0.0000</r>
       <r>   8.5824  0.0000</r>
       <r>   8.5824  0.0000</r>
       <r>   8.6669  0.0000</r>
       <r>   8.6995  0.0000</r>
       <r>   8.7786  0.0000</r>
       <r>   8.8202  0.0000</r>
       <r>   8.8203  0.0000</r>
      </set>
      <set comment="kpoint 11">
       <r>  -3.2726  1.0000</r>
       <r>  -2.2071  1.0000</r>
       <r>  -1.5009  1.0000</r>
       <r>  -1.1490  1.0000</r>
       <r>  -1.1490  1.0000</r>
       <r>  -0.7980  1.0000</r>
       <r>  -0.4475  1.0000</r>
       <r>  -0.1002  1.0000</r>
       <r>  -0.0980  1.0000</r>
       <r>  -0.0966  1.0000</r>
       <r>   0.2506  1.0000</r>
       <r>   0.5987  1.0000</r>
       <r>   0.5987  1.0000</r>
       <r>   1.2923  1.0000</r>
       <r>   1.2923  1.0000</r>
       <r>   1.6360  1.0000</r>
       <r>   1.6384  1.0000</r>
       <r>   1.6397  1.0000</r>
       <r>   1.9823  1.0000</r>
       <r>   1.9823  1.0000</r>
       <r>   2.3251  1.0000</r>
       <r>   2.3276  1.0000</r>
       <r>   2.3289  1.0000</r>
       <r>   2.9837  1.0000</r>
       <r>   3.6973  1.0000</r>
       <r>   3.6973  1.0000</r>
       <r>   4.2317  1.0000</r>
       <r>   4.3783  1.0000</r>
       <r>   4.3783  1.0000</r>
       <r>   4.5546  1.0000</r>
       <r>   4.6806  1.0000</r>
       <r>   5.0178  1.0000</r>
       <r>   5.0178  1.0000</r>
       <r>   5.2332  1.0000</r>
       <r>   5.3542  1.0000</r>
       <r>   5.5438  1.0000</r>
       <r>   5.6801  1.0000</r>
       <r>   6.0007  1.0000</r>
       <r>   6.2040  1.0000</r>
       <r>   6.2337  1.0000</r>
       <r>   6.2337  1.0000</r>
       <r>   6.7013  1.0000</r>
       <r>   6.7013  1.0000</r>
       <r>   6.7126  1.0000</r>
       <r>   6.8648  1.0000</r>
       <r>   7.0238  1.0000</r>
       <r>   7.1947  0.0000</r>
       <r>   7.2303  0.0000</r>
       <r>   7.2309  0.0000</r>
       <r>   7.2313  0.0000</r>
       <r>   7.2393  0.0000</r>
       <r>   7.3700  0.0000</r>
       <r>   7.3700  0.0000</r>
       <r>   7.4114  0.0000</r>
       <r>   7.5262  0.0000</r>
       <r>   7.8558  0.0000</r>
       <r>   8.0432  0.0000</r>
       <r>   8.0432  0.0000</r>
       <r>   8.0737  0.0000</r>
       <r>   8.4334  0.0000</r>
       <r>   8.7747  0.0000</r>
       <r>   8.9386  0.0000</r>
       <r>   9.0588  0.0000</r>
       <r>   9.0595  0.0000</r>
       <r>   9.0626  0.0000</r>
       <r>   9.1005  0.0000</r>
       <r>   9.1784  0.0000</r>
       <r>   9.2205  0.0000</r>
      </set>
      <set comment="kpoint 12">
       <r>  -3.1687  1.0000</r>
       <r>  -2.4580  1.0000</r>
       <r>  -1.3982  1.0000</r>
       <r>  -1.0465  1.0000</r>
       <r>  -1.0465  1.0000</r>
       <r>  -0.6963  1.0000</r>
       <r>  -0.6951  1.0000</r>
       <r>  -0.3456  1.0000</r>
       <r>  -0.3456  1.0000</r>
       <r>   0.0036  1.0000</r>
       <r>   0.3509  1.0000</r>
       <r>   0.7001  1.0000</r>
       <r>   0.7001  1.0000</r>
       <r>   1.3926  1.0000</r>
       <r>   1.3929  1.0000</r>
       <r>   1.3938  1.0000</r>
       <r>   1.3941  1.0000</r>
       <r>   2.0818  1.0000</r>
       <r>   2.0838  1.0000</r>
       <r>   2.0839  1.0000</r>
       <r>   2.4115  1.0000</r>
       <r>   2.4258  1.0000</r>
       <r>   2.4259  1.0000</r>
       <r>   2.7689  1.0000</r>
       <r>   4.1172  1.0000</r>
       <r>   4.1364  1.0000</r>
       <r>   4.1365  1.0000</r>
       <r>   4.3292  1.0000</r>
       <r>   4.4562  1.0000</r>
       <r>   4.4562  1.0000</r>
       <r>   4.6507  1.0000</r>
       <r>   4.7943  1.0000</r>
       <r>   4.8157  1.0000</r>
       <r>   4.8158  1.0000</r>
       <r>   4.9969  1.0000</r>
       <r>   5.3101  1.0000</r>
       <r>   5.7820  1.0000</r>
       <r>   6.1012  1.0000</r>
       <r>   6.1461  1.0000</r>
       <r>   6.1461  1.0000</r>
       <r>   6.3003  1.0000</r>
       <r>   6.3307  1.0000</r>
       <r>   6.3307  1.0000</r>
       <r>   6.4738  1.0000</r>
       <r>   6.7850  1.0000</r>
       <r>   6.8172  1.0000</r>
       <r>   6.8173  1.0000</r>
       <r>   6.9601  1.0000</r>
       <r>   6.9618  1.0000</r>
       <r>   6.9959  1.0000</r>
       <r>   6.9959  1.0000</r>
       <r>   7.5125  0.0000</r>
       <r>   7.6218  0.0000</r>
       <r>   7.6631  0.0000</r>
       <r>   7.9536  0.0000</r>
       <r>   7.9848  0.0000</r>
       <r>   8.1464  0.0000</r>
       <r>   8.1464  0.0000</r>
       <r>   8.1824  0.0000</r>
       <r>   8.1941  0.0000</r>
       <r>   8.8226  0.0000</r>
       <r>   8.8226  0.0000</r>
       <r>   8.8632  0.0000</r>
       <r>   9.1942  0.0000</r>
       <r>   9.4814  0.0000</r>
       <r>   9.6057  0.0000</r>
       <r>   9.6418  0.0000</r>
       <r>   9.6473  0.0000</r>
      </set>
      <set comment="kpoint 13">
       <r>  -3.0352  1.0000</r>
       <r>  -2.6797  1.0000</r>
       <r>  -1.2662  1.0000</r>
       <r>  -0.9161  1.0000</r>
       <r>  -0.9148  1.0000</r>
       <r>  -0.9135  1.0000</r>
       <r>  -0.5656  1.0000</r>
       <r>  -0.5643  1.0000</r>
       <r>  -0.5630  1.0000</r>
       <r>  -0.2146  1.0000</r>
       <r>   0.8271  1.0000</r>
       <r>   0.8303  1.0000</r>
       <r>   0.8308  1.0000</r>
       <r>   1.1771  1.0000</r>
       <r>   1.1771  1.0000</r>
       <r>   1.5229  1.0000</r>
       <r>   1.5229  1.0000</r>
       <r>   1.8591  1.0000</r>
       <r>   1.8683  1.0000</r>
       <r>   1.8685  1.0000</r>
       <r>   2.5532  1.0000</r>
       <r>   2.8960  1.0000</r>
       <r>   2.8960  1.0000</r>
       <r>   3.2381  1.0000</r>
       <r>   3.5724  1.0000</r>
       <r>   3.9129  1.0000</r>
       <r>   3.9129  1.0000</r>
       <r>   4.2525  1.0000</r>
       <r>   4.4544  1.0000</r>
       <r>   4.6019  1.0000</r>
       <r>   4.6019  1.0000</r>
       <r>   4.7743  1.0000</r>
       <r>   4.7884  1.0000</r>
       <r>   5.1040  1.0000</r>
       <r>   5.2794  1.0000</r>
       <r>   5.2794  1.0000</r>
       <r>   5.6085  1.0000</r>
       <r>   5.6085  1.0000</r>
       <r>   5.9127  1.0000</r>
       <r>   6.2302  1.0000</r>
       <r>   6.2592  1.0000</r>
       <r>   6.2818  1.0000</r>
       <r>   6.2819  1.0000</r>
       <r>   6.4241  1.0000</r>
       <r>   6.4555  1.0000</r>
       <r>   6.4555  1.0000</r>
       <r>   6.5726  1.0000</r>
       <r>   6.7543  1.0000</r>
       <r>   6.7881  1.0000</r>
       <r>   6.7881  1.0000</r>
       <r>   7.0850  1.0000</r>
       <r>   7.4153  0.0000</r>
       <r>   7.6412  0.0000</r>
       <r>   7.9822  0.0000</r>
       <r>   8.1174  0.0000</r>
       <r>   8.2749  0.0000</r>
       <r>   8.2749  0.0000</r>
       <r>   8.3129  0.0000</r>
       <r>   8.4086  0.0000</r>
       <r>   8.6128  0.0000</r>
       <r>   8.6128  0.0000</r>
       <r>   8.6528  0.0000</r>
       <r>   8.7710  0.0000</r>
       <r>   9.1063  0.0000</r>
       <r>   9.4020  0.0000</r>
       <r>   9.6356  0.0000</r>
       <r>   9.9227  0.0000</r>
       <r>  10.0707  0.0000</r>
      </set>
      <set comment="kpoint 14">
       <r>  -2.8735  1.0000</r>
       <r>  -2.8708  1.0000</r>
       <r>  -1.1064  1.0000</r>
       <r>  -1.1037  1.0000</r>
       <r>  -0.7560  1.0000</r>
       <r>  -0.7549  1.0000</r>
       <r>  -0.7533  1.0000</r>
       <r>  -0.7522  1.0000</r>
       <r>  -0.4053  1.0000</r>
       <r>  -0.4026  1.0000</r>
       <r>   0.9874  1.0000</r>
       <r>   0.9885  1.0000</r>
       <r>   0.9901  1.0000</r>
       <r>   0.9913  1.0000</r>
       <r>   1.3300  1.0000</r>
       <r>   1.3314  1.0000</r>
       <r>   1.6794  1.0000</r>
       <r>   1.6805  1.0000</r>
       <r>   1.6821  1.0000</r>
       <r>   1.6832  1.0000</r>
       <r>   3.0497  1.0000</r>
       <r>   3.0511  1.0000</r>
       <r>   3.3913  1.0000</r>
       <r>   3.3914  1.0000</r>
       <r>   3.3928  1.0000</r>
       <r>   3.3929  1.0000</r>
       <r>   3.7323  1.0000</r>
       <r>   3.7337  1.0000</r>
       <r>   4.6061  1.0000</r>
       <r>   4.6089  1.0000</r>
       <r>   4.9239  1.0000</r>
       <r>   4.9268  1.0000</r>
       <r>   5.0923  1.0000</r>
       <r>   5.0923  1.0000</r>
       <r>   5.0937  1.0000</r>
       <r>   5.0938  1.0000</r>
       <r>   5.7677  1.0000</r>
       <r>   5.7678  1.0000</r>
       <r>   5.7692  1.0000</r>
       <r>   5.7693  1.0000</r>
       <r>   6.0706  1.0000</r>
       <r>   6.0732  1.0000</r>
       <r>   6.3861  1.0000</r>
       <r>   6.3888  1.0000</r>
       <r>   6.5739  1.0000</r>
       <r>   6.5769  1.0000</r>
       <r>   6.6058  1.0000</r>
       <r>   6.6072  1.0000</r>
       <r>   6.6087  1.0000</r>
       <r>   6.6101  1.0000</r>
       <r>   7.2349  0.0000</r>
       <r>   7.2378  0.0000</r>
       <r>   7.7965  0.0000</r>
       <r>   7.7991  0.0000</r>
       <r>   8.4285  0.0000</r>
       <r>   8.4292  0.0000</r>
       <r>   8.4312  0.0000</r>
       <r>   8.4319  0.0000</r>
       <r>   8.4681  0.0000</r>
       <r>   8.4708  0.0000</r>
       <r>   8.5978  0.0000</r>
       <r>   8.5997  0.0000</r>
       <r>   8.8903  0.0000</r>
       <r>   8.8926  0.0000</r>
       <r>   9.5842  0.0000</r>
       <r>   9.5858  0.0000</r>
       <r>  10.0943  0.0000</r>
       <r>  10.0949  0.0000</r>
      </set>
      <set comment="kpoint 15">
       <r>  -3.3618  1.0000</r>
       <r>  -1.9419  1.0000</r>
       <r>  -1.2396  1.0000</r>
       <r>  -1.2369  1.0000</r>
       <r>  -1.2369  1.0000</r>
       <r>  -1.2341  1.0000</r>
       <r>  -0.5353  1.0000</r>
       <r>   0.1609  1.0000</r>
       <r>   0.1636  1.0000</r>
       <r>   0.1636  1.0000</r>
       <r>   0.1664  1.0000</r>
       <r>   0.8571  1.0000</r>
       <r>   0.8581  1.0000</r>
       <r>   0.8603  1.0000</r>
       <r>   0.8613  1.0000</r>
       <r>   1.5486  1.0000</r>
       <r>   1.5514  1.0000</r>
       <r>   1.5514  1.0000</r>
       <r>   1.5542  1.0000</r>
       <r>   2.2396  1.0000</r>
       <r>   2.2407  1.0000</r>
       <r>   2.2428  1.0000</r>
       <r>   2.2439  1.0000</r>
       <r>   3.5518  1.0000</r>
       <r>   3.6104  1.0000</r>
       <r>   3.6115  1.0000</r>
       <r>   3.6137  1.0000</r>
       <r>   3.6148  1.0000</r>
       <r>   4.4722  1.0000</r>
       <r>   4.4722  1.0000</r>
       <r>   5.5695  1.0000</r>
       <r>   5.5725  1.0000</r>
       <r>   5.5725  1.0000</r>
       <r>   5.5754  1.0000</r>
       <r>   5.5926  1.0000</r>
       <r>   5.5926  1.0000</r>
       <r>   5.7913  1.0000</r>
       <r>   5.7914  1.0000</r>
       <r>   6.4492  1.0000</r>
       <r>   6.4518  1.0000</r>
       <r>   6.4518  1.0000</r>
       <r>   6.4544  1.0000</r>
       <r>   6.5039  1.0000</r>
       <r>   6.9684  1.0000</r>
       <r>   6.9685  1.0000</r>
       <r>   7.1129  1.0000</r>
       <r>   7.1129  1.0000</r>
       <r>   7.5791  0.0000</r>
       <r>   7.5804  0.0000</r>
       <r>   7.5825  0.0000</r>
       <r>   7.5839  0.0000</r>
       <r>   7.6494  0.0000</r>
       <r>   7.6516  0.0000</r>
       <r>   7.6516  0.0000</r>
       <r>   7.6537  0.0000</r>
       <r>   7.7705  0.0000</r>
       <r>   7.7731  0.0000</r>
       <r>   7.7731  0.0000</r>
       <r>   7.7757  0.0000</r>
       <r>   8.3649  0.0000</r>
       <r>   8.3649  0.0000</r>
       <r>   8.5588  0.0000</r>
       <r>   8.5611  0.0000</r>
       <r>   8.5611  0.0000</r>
       <r>   8.5634  0.0000</r>
       <r>   9.0181  0.0000</r>
       <r>   9.0205  0.0000</r>
       <r>   9.0221  0.0000</r>
      </set>
      <set comment="kpoint 16">
       <r>  -3.3469  1.0000</r>
       <r>  -1.9271  1.0000</r>
       <r>  -1.5743  1.0000</r>
       <r>  -1.2222  1.0000</r>
       <r>  -1.2222  1.0000</r>
       <r>  -0.8710  1.0000</r>
       <r>  -0.5208  1.0000</r>
       <r>  -0.1708  1.0000</r>
       <r>   0.1781  1.0000</r>
       <r>   0.1781  1.0000</r>
       <r>   0.5248  1.0000</r>
       <r>   0.5263  1.0000</r>
       <r>   0.5277  1.0000</r>
       <r>   1.2187  1.0000</r>
       <r>   1.2202  1.0000</r>
       <r>   1.2215  1.0000</r>
       <r>   1.5658  1.0000</r>
       <r>   1.5658  1.0000</r>
       <r>   1.9106  1.0000</r>
       <r>   1.9116  1.0000</r>
       <r>   1.9119  1.0000</r>
       <r>   2.5998  1.0000</r>
       <r>   2.5998  1.0000</r>
       <r>   3.2851  1.0000</r>
       <r>   3.2851  1.0000</r>
       <r>   3.5659  1.0000</r>
       <r>   3.9677  1.0000</r>
       <r>   3.9677  1.0000</r>
       <r>   4.1620  1.0000</r>
       <r>   4.4859  1.0000</r>
       <r>   5.2513  1.0000</r>
       <r>   5.4969  1.0000</r>
       <r>   5.5858  1.0000</r>
       <r>   5.5859  1.0000</r>
       <r>   5.6072  1.0000</r>
       <r>   5.8051  1.0000</r>
       <r>   5.9203  1.0000</r>
       <r>   5.9288  1.0000</r>
       <r>   6.1352  1.0000</r>
       <r>   6.1648  1.0000</r>
       <r>   6.1648  1.0000</r>
       <r>   6.5181  1.0000</r>
       <r>   6.7960  1.0000</r>
       <r>   6.8087  1.0000</r>
       <r>   7.0099  1.0000</r>
       <r>   7.1266  0.9920</r>
       <r>   7.2621  0.0000</r>
       <r>   7.2621  0.0000</r>
       <r>   7.2853  0.0000</r>
       <r>   7.3368  0.0000</r>
       <r>   7.4563  0.0000</r>
       <r>   7.4943  0.0000</r>
       <r>   7.4943  0.0000</r>
       <r>   7.9281  0.0000</r>
       <r>   7.9281  0.0000</r>
       <r>   7.9490  0.0000</r>
       <r>   7.9573  0.0000</r>
       <r>   7.9576  0.0000</r>
       <r>   8.1174  0.0000</r>
       <r>   8.2942  0.0000</r>
       <r>   8.3822  0.0000</r>
       <r>   8.5824  0.0000</r>
       <r>   8.5824  0.0000</r>
       <r>   8.6669  0.0000</r>
       <r>   8.6995  0.0000</r>
       <r>   8.7785  0.0000</r>
       <r>   8.8203  0.0000</r>
       <r>   8.8206  0.0000</r>
      </set>
      <set comment="kpoint 17">
       <r>  -3.3023  1.0000</r>
       <r>  -1.8841  1.0000</r>
       <r>  -1.8819  1.0000</r>
       <r>  -1.1783  1.0000</r>
       <r>  -1.1783  1.0000</r>
       <r>  -0.4787  1.0000</r>
       <r>  -0.4769  1.0000</r>
       <r>  -0.4751  1.0000</r>
       <r>   0.2201  1.0000</r>
       <r>   0.2210  1.0000</r>
       <r>   0.2224  1.0000</r>
       <r>   0.2233  1.0000</r>
       <r>   0.9162  1.0000</r>
       <r>   0.9172  1.0000</r>
       <r>   1.6068  1.0000</r>
       <r>   1.6080  1.0000</r>
       <r>   1.6092  1.0000</r>
       <r>   1.6093  1.0000</r>
       <r>   1.6104  1.0000</r>
       <r>   1.6116  1.0000</r>
       <r>   2.2979  1.0000</r>
       <r>   2.9821  1.0000</r>
       <r>   2.9821  1.0000</r>
       <r>   2.9888  1.0000</r>
       <r>   2.9888  1.0000</r>
       <r>   3.6078  1.0000</r>
       <r>   3.6087  1.0000</r>
       <r>   4.3503  1.0000</r>
       <r>   4.3503  1.0000</r>
       <r>   4.5271  1.0000</r>
       <r>   4.9563  1.0000</r>
       <r>   4.9586  1.0000</r>
       <r>   5.5944  1.0000</r>
       <r>   5.5944  1.0000</r>
       <r>   5.6509  1.0000</r>
       <r>   5.6652  1.0000</r>
       <r>   5.6653  1.0000</r>
       <r>   5.8451  1.0000</r>
       <r>   5.8476  1.0000</r>
       <r>   6.2921  1.0000</r>
       <r>   6.2935  1.0000</r>
       <r>   6.5602  1.0000</r>
       <r>   6.5612  1.0000</r>
       <r>   6.9684  1.0000</r>
       <r>   6.9694  1.0000</r>
       <r>   6.9707  1.0000</r>
       <r>   6.9717  1.0000</r>
       <r>   7.0444  1.0000</r>
       <r>   7.0461  1.0000</r>
       <r>   7.1655  0.0010</r>
       <r>   7.1677  0.0003</r>
       <r>   7.1699  0.0001</r>
       <r>   7.8827  0.0000</r>
       <r>   7.8845  0.0000</r>
       <r>   8.3006  0.0000</r>
       <r>   8.3017  0.0000</r>
       <r>   8.3018  0.0000</r>
       <r>   8.3028  0.0000</r>
       <r>   8.4058  0.0000</r>
       <r>   8.4419  0.0000</r>
       <r>   8.4430  0.0000</r>
       <r>   8.4726  0.0000</r>
       <r>   8.4727  0.0000</r>
       <r>   8.4885  0.0000</r>
       <r>   8.4904  0.0000</r>
       <r>   8.7180  0.0000</r>
       <r>   8.7180  0.0000</r>
       <r>   9.2659  0.0000</r>
      </set>
      <set comment="kpoint 18">
       <r>  -3.2281  1.0000</r>
       <r>  -2.1629  1.0000</r>
       <r>  -1.8094  1.0000</r>
       <r>  -1.1051  1.0000</r>
       <r>  -1.1051  1.0000</r>
       <r>  -0.7540  1.0000</r>
       <r>  -0.4041  1.0000</r>
       <r>  -0.0566  1.0000</r>
       <r>  -0.0544  1.0000</r>
       <r>  -0.0529  1.0000</r>
       <r>   0.2943  1.0000</r>
       <r>   0.2943  1.0000</r>
       <r>   0.6418  1.0000</r>
       <r>   1.3335  1.0000</r>
       <r>   1.3358  1.0000</r>
       <r>   1.3372  1.0000</r>
       <r>   1.6810  1.0000</r>
       <r>   1.6810  1.0000</r>
       <r>   2.0253  1.0000</r>
       <r>   2.0254  1.0000</r>
       <r>   2.7112  1.0000</r>
       <r>   2.7139  1.0000</r>
       <r>   2.7151  1.0000</r>
       <r>   3.0263  1.0000</r>
       <r>   3.3984  1.0000</r>
       <r>   3.3984  1.0000</r>
       <r>   3.6787  1.0000</r>
       <r>   4.3849  1.0000</r>
       <r>   4.5957  1.0000</r>
       <r>   4.6912  1.0000</r>
       <r>   4.7600  1.0000</r>
       <r>   4.7600  1.0000</r>
       <r>   5.0591  1.0000</r>
       <r>   5.0591  1.0000</r>
       <r>   5.5850  1.0000</r>
       <r>   5.7020  1.0000</r>
       <r>   5.7020  1.0000</r>
       <r>   5.7237  1.0000</r>
       <r>   5.7310  1.0000</r>
       <r>   5.9151  1.0000</r>
       <r>   6.4080  1.0000</r>
       <r>   6.4080  1.0000</r>
       <r>   6.6316  1.0000</r>
       <r>   6.6493  1.0000</r>
       <r>   6.7055  1.0000</r>
       <r>   6.7056  1.0000</r>
       <r>   6.8219  1.0000</r>
       <r>   6.9056  1.0000</r>
       <r>   7.1158  1.0000</r>
       <r>   7.2367  0.0000</r>
       <r>   7.2727  0.0000</r>
       <r>   7.5675  0.0000</r>
       <r>   7.6385  0.0000</r>
       <r>   7.7450  0.0000</r>
       <r>   7.7450  0.0000</r>
       <r>   8.1386  0.0000</r>
       <r>   8.2278  0.0000</r>
       <r>   8.3907  0.0000</r>
       <r>   8.6436  0.0000</r>
       <r>   8.6436  0.0000</r>
       <r>   8.7018  0.0000</r>
       <r>   8.7022  0.0000</r>
       <r>   8.7067  0.0000</r>
       <r>   8.8210  0.0000</r>
       <r>   8.8890  0.0000</r>
       <r>   9.3116  0.0000</r>
       <r>   9.3116  0.0000</r>
       <r>   9.4714  0.0000</r>
      </set>
      <set comment="kpoint 19">
       <r>  -3.1242  1.0000</r>
       <r>  -2.4137  1.0000</r>
       <r>  -1.7065  1.0000</r>
       <r>  -1.0039  1.0000</r>
       <r>  -1.0026  1.0000</r>
       <r>  -1.0013  1.0000</r>
       <r>  -0.3033  1.0000</r>
       <r>  -0.3019  1.0000</r>
       <r>  -0.3007  1.0000</r>
       <r>   0.3930  1.0000</r>
       <r>   0.3955  1.0000</r>
       <r>   0.3958  1.0000</r>
       <r>   0.3972  1.0000</r>
       <r>   1.0905  1.0000</r>
       <r>   1.0905  1.0000</r>
       <r>   1.7801  1.0000</r>
       <r>   1.7817  1.0000</r>
       <r>   1.7819  1.0000</r>
       <r>   2.4542  1.0000</r>
       <r>   2.4679  1.0000</r>
       <r>   2.4684  1.0000</r>
       <r>   2.4710  1.0000</r>
       <r>   2.4717  1.0000</r>
       <r>   3.1539  1.0000</r>
       <r>   3.7773  1.0000</r>
       <r>   3.8200  1.0000</r>
       <r>   3.8383  1.0000</r>
       <r>   3.8384  1.0000</r>
[...]
       <r>   1.8532  1.0000</r>
       <r>   2.1888  1.0000</r>
       <r>   2.1908  1.0000</r>
       <r>   2.1925  1.0000</r>
       <r>   2.1927  1.0000</r>
       <r>   2.1928  1.0000</r>
       <r>   2.1931  1.0000</r>
       <r>   2.1947  1.0000</r>
       <r>   2.1967  1.0000</r>
       <r>   2.5325  1.0000</r>
       <r>   2.5345  1.0000</r>
       <r>   2.5361  1.0000</r>
       <r>   2.5364  1.0000</r>
       <r>   2.5365  1.0000</r>
       <r>   2.5367  1.0000</r>
       <r>   2.5384  1.0000</r>
       <r>   2.5404  1.0000</r>
       <r>   2.8726  1.0000</r>
       <r>   2.8748  1.0000</r>
       <r>   2.8753  1.0000</r>
       <r>   2.8776  1.0000</r>
       <r>   5.9278  1.0000</r>
       <r>   5.9299  1.0000</r>
       <r>   5.9316  1.0000</r>
       <r>   5.9319  1.0000</r>
       <r>   5.9320  1.0000</r>
       <r>   5.9322  1.0000</r>
       <r>   5.9339  1.0000</r>
       <r>   5.9360  1.0000</r>
       <r>   6.2633  1.0000</r>
       <r>   6.2643  1.0000</r>
       <r>   6.2648  1.0000</r>
       <r>   6.2658  1.0000</r>
       <r>   6.5996  1.0000</r>
       <r>   6.6006  1.0000</r>
       <r>   6.6011  1.0000</r>
       <r>   6.6021  1.0000</r>
       <r>   6.9257  1.0000</r>
       <r>   6.9279  1.0000</r>
       <r>   6.9296  1.0000</r>
       <r>   6.9298  1.0000</r>
       <r>   6.9299  1.0000</r>
       <r>   6.9301  1.0000</r>
       <r>   6.9318  1.0000</r>
       <r>   6.9340  1.0000</r>
       <r>   9.7573  0.0000</r>
       <r>   9.7595  0.0000</r>
       <r>   9.7601  0.0000</r>
       <r>   9.7622  0.0000</r>
       <r>   9.9225  0.0000</r>
       <r>   9.9235  0.0000</r>
       <r>   9.9242  0.0000</r>
       <r>   9.9252  0.0000</r>
       <r>  10.4138  0.0000</r>
       <r>  10.4148  0.0000</r>
       <r>  10.4165  0.0000</r>
       <r>  10.4170  0.0000</r>
      </set>
      <set comment="kpoint 190">
       <r>  -2.3547  1.0000</r>
       <r>  -2.3547  1.0000</r>
       <r>  -2.3547  1.0000</r>
       <r>  -2.3547  1.0000</r>
       <r>  -0.2488  1.0000</r>
       <r>  -0.2443  1.0000</r>
       <r>  -0.2443  1.0000</r>
       <r>  -0.2437  1.0000</r>
       <r>  -0.2436  1.0000</r>
       <r>  -0.2431  1.0000</r>
       <r>  -0.2431  1.0000</r>
       <r>  -0.2385  1.0000</r>
       <r>   1.8341  1.0000</r>
       <r>   1.8341  1.0000</r>
       <r>   1.8341  1.0000</r>
       <r>   1.8341  1.0000</r>
       <r>   1.8341  1.0000</r>
       <r>   1.8341  1.0000</r>
       <r>   1.8341  1.0000</r>
       <r>   1.8341  1.0000</r>
       <r>   3.8695  1.0000</r>
       <r>   3.8695  1.0000</r>
       <r>   3.8706  1.0000</r>
       <r>   3.8711  1.0000</r>
       <r>   3.8711  1.0000</r>
       <r>   3.8711  1.0000</r>
       <r>   3.8724  1.0000</r>
       <r>   3.8724  1.0000</r>
       <r>   3.9078  1.0000</r>
       <r>   3.9078  1.0000</r>
       <r>   3.9092  1.0000</r>
       <r>   3.9092  1.0000</r>
       <r>   3.9092  1.0000</r>
       <r>   3.9096  1.0000</r>
       <r>   3.9108  1.0000</r>
       <r>   3.9108  1.0000</r>
       <r>   5.4062  1.0000</r>
       <r>   5.4062  1.0000</r>
       <r>   5.4062  1.0000</r>
       <r>   5.4063  1.0000</r>
       <r>   5.9044  1.0000</r>
       <r>   5.9044  1.0000</r>
       <r>   5.9044  1.0000</r>
       <r>   5.9044  1.0000</r>
       <r>   6.5941  1.0000</r>
       <r>   6.5942  1.0000</r>
       <r>   6.5942  1.0000</r>
       <r>   6.5942  1.0000</r>
       <r>   7.9234  0.0000</r>
       <r>   7.9234  0.0000</r>
       <r>   7.9240  0.0000</r>
       <r>   7.9247  0.0000</r>
       <r>   7.9264  0.0000</r>
       <r>   7.9271  0.0000</r>
       <r>   7.9277  0.0000</r>
       <r>   7.9277  0.0000</r>
       <r>   9.3732  0.0000</r>
       <r>   9.3732  0.0000</r>
       <r>   9.3732  0.0000</r>
       <r>   9.3732  0.0000</r>
       <r>   9.3732  0.0000</r>
       <r>   9.3732  0.0000</r>
       <r>   9.3732  0.0000</r>
       <r>   9.3732  0.0000</r>
       <r>  10.0454  0.0000</r>
       <r>  10.0454  0.0000</r>
       <r>  10.0454  0.0000</r>
       <r>  10.0454  0.0000</r>
      </set>
      <set comment="kpoint 191">
       <r>  -2.3400  1.0000</r>
       <r>  -2.3399  1.0000</r>
       <r>  -2.3399  1.0000</r>
       <r>  -2.3399  1.0000</r>
       <r>  -0.5789  1.0000</r>
       <r>  -0.5789  1.0000</r>
       <r>  -0.5789  1.0000</r>
       <r>  -0.5789  1.0000</r>
       <r>   0.1199  1.0000</r>
       <r>   0.1199  1.0000</r>
       <r>   0.1199  1.0000</r>
       <r>   0.1199  1.0000</r>
       <r>   1.8485  1.0000</r>
       <r>   1.8485  1.0000</r>
       <r>   1.8485  1.0000</r>
       <r>   1.8485  1.0000</r>
       <r>   1.8485  1.0000</r>
       <r>   1.8485  1.0000</r>
       <r>   1.8485  1.0000</r>
       <r>   1.8485  1.0000</r>
       <r>   3.5629  1.0000</r>
       <r>   3.5629  1.0000</r>
       <r>   3.5629  1.0000</r>
       <r>   3.5629  1.0000</r>
       <r>   3.5629  1.0000</r>
       <r>   3.5629  1.0000</r>
       <r>   3.5629  1.0000</r>
       <r>   3.5629  1.0000</r>
       <r>   4.2448  1.0000</r>
       <r>   4.2448  1.0000</r>
       <r>   4.2450  1.0000</r>
       <r>   4.2450  1.0000</r>
       <r>   4.2450  1.0000</r>
       <r>   4.2450  1.0000</r>
       <r>   4.2451  1.0000</r>
       <r>   4.2451  1.0000</r>
       <r>   5.1076  1.0000</r>
       <r>   5.1076  1.0000</r>
       <r>   5.1076  1.0000</r>
       <r>   5.1076  1.0000</r>
       <r>   5.9240  1.0000</r>
       <r>   5.9240  1.0000</r>
       <r>   5.9240  1.0000</r>
       <r>   5.9240  1.0000</r>
       <r>   6.9131  1.0000</r>
       <r>   6.9131  1.0000</r>
       <r>   6.9131  1.0000</r>
       <r>   6.9131  1.0000</r>
       <r>   7.6058  0.0000</r>
       <r>   7.6058  0.0000</r>
       <r>   7.6058  0.0000</r>
       <r>   7.6058  0.0000</r>
       <r>   8.2723  0.0000</r>
       <r>   8.2723  0.0000</r>
       <r>   8.2723  0.0000</r>
       <r>   8.2723  0.0000</r>
       <r>   9.0909  0.0000</r>
       <r>   9.0909  0.0000</r>
       <r>   9.0912  0.0000</r>
       <r>   9.0912  0.0000</r>
       <r>   9.0912  0.0000</r>
       <r>   9.0912  0.0000</r>
       <r>   9.0914  0.0000</r>
       <r>   9.0914  0.0000</r>
       <r>  10.0738  0.0000</r>
       <r>  10.0740  0.0000</r>
       <r>  10.0742  0.0000</r>
       <r>  10.0744  0.0000</r>
      </set>
      <set comment="kpoint 192">
       <r>  -2.2957  1.0000</r>
       <r>  -2.2957  1.0000</r>
       <r>  -2.2957  1.0000</r>
       <r>  -2.2957  1.0000</r>
       <r>  -0.8856  1.0000</r>
       <r>  -0.8856  1.0000</r>
       <r>  -0.8856  1.0000</r>
       <r>  -0.8856  1.0000</r>
       <r>   0.5114  1.0000</r>
       <r>   0.5114  1.0000</r>
       <r>   0.5114  1.0000</r>
       <r>   0.5114  1.0000</r>
       <r>   1.8915  1.0000</r>
       <r>   1.8915  1.0000</r>
       <r>   1.8915  1.0000</r>
       <r>   1.8915  1.0000</r>
       <r>   1.8915  1.0000</r>
       <r>   1.8915  1.0000</r>
       <r>   1.8915  1.0000</r>
       <r>   1.8915  1.0000</r>
       <r>   3.2643  1.0000</r>
       <r>   3.2643  1.0000</r>
       <r>   3.2643  1.0000</r>
       <r>   3.2643  1.0000</r>
       <r>   3.2643  1.0000</r>
       <r>   3.2643  1.0000</r>
       <r>   3.2643  1.0000</r>
       <r>   3.2643  1.0000</r>
       <r>   4.5646  1.0000</r>
       <r>   4.5646  1.0000</r>
       <r>   4.5647  1.0000</r>
       <r>   4.5647  1.0000</r>
       <r>   4.6263  1.0000</r>
       <r>   4.6263  1.0000</r>
       <r>   4.6264  1.0000</r>
       <r>   4.6264  1.0000</r>
       <r>   4.6264  1.0000</r>
       <r>   4.6264  1.0000</r>
       <r>   4.6265  1.0000</r>
       <r>   4.6265  1.0000</r>
       <r>   5.9687  1.0000</r>
       <r>   5.9687  1.0000</r>
       <r>   5.9687  1.0000</r>
       <r>   5.9687  1.0000</r>
       <r>   7.3133  0.0000</r>
       <r>   7.3133  0.0000</r>
       <r>   7.3133  0.0000</r>
       <r>   7.3133  0.0000</r>
       <r>   7.5308  0.0000</r>
       <r>   7.5309  0.0000</r>
       <r>   7.5309  0.0000</r>
       <r>   7.5309  0.0000</r>
       <r>   8.5697  0.0000</r>
       <r>   8.5697  0.0000</r>
       <r>   8.5699  0.0000</r>
       <r>   8.5699  0.0000</r>
       <r>   8.5699  0.0000</r>
       <r>   8.5700  0.0000</r>
       <r>   8.5701  0.0000</r>
       <r>   8.5701  0.0000</r>
       <r>   8.6459  0.0000</r>
       <r>   8.6459  0.0000</r>
       <r>   8.6460  0.0000</r>
       <r>   8.6460  0.0000</r>
       <r>  10.1231  0.0000</r>
       <r>  10.1232  0.0000</r>
       <r>  10.1233  0.0000</r>
       <r>  10.1235  0.0000</r>
      </set>
      <set comment="kpoint 193">
       <r>  -2.2219  1.0000</r>
       <r>  -2.2219  1.0000</r>
       <r>  -2.2219  1.0000</r>
       <r>  -2.2219  1.0000</r>
       <r>  -1.1637  1.0000</r>
       <r>  -1.1637  1.0000</r>
       <r>  -1.1637  1.0000</r>
       <r>  -1.1637  1.0000</r>
       <r>   0.9307  1.0000</r>
       <r>   0.9307  1.0000</r>
       <r>   0.9307  1.0000</r>
       <r>   0.9307  1.0000</r>
       <r>   1.9633  1.0000</r>
       <r>   1.9633  1.0000</r>
       <r>   1.9633  1.0000</r>
       <r>   1.9633  1.0000</r>
       <r>   1.9633  1.0000</r>
       <r>   1.9633  1.0000</r>
       <r>   1.9633  1.0000</r>
       <r>   1.9633  1.0000</r>
       <r>   2.9935  1.0000</r>
       <r>   2.9935  1.0000</r>
       <r>   2.9935  1.0000</r>
       <r>   2.9935  1.0000</r>
       <r>   2.9935  1.0000</r>
       <r>   2.9935  1.0000</r>
       <r>   2.9935  1.0000</r>
       <r>   2.9935  1.0000</r>
       <r>   3.9897  1.0000</r>
       <r>   3.9897  1.0000</r>
       <r>   3.9897  1.0000</r>
       <r>   3.9897  1.0000</r>
       <r>   5.0349  1.0000</r>
       <r>   5.0349  1.0000</r>
       <r>   5.0350  1.0000</r>
       <r>   5.0350  1.0000</r>
       <r>   5.0350  1.0000</r>
       <r>   5.0350  1.0000</r>
       <r>   5.0351  1.0000</r>
       <r>   5.0351  1.0000</r>
       <r>   6.0397  1.0000</r>
       <r>   6.0397  1.0000</r>
       <r>   6.0397  1.0000</r>
       <r>   6.0397  1.0000</r>
       <r>   7.0482  1.0000</r>
       <r>   7.0482  1.0000</r>
       <r>   7.0482  1.0000</r>
       <r>   7.0482  1.0000</r>
       <r>   8.0133  0.0000</r>
       <r>   8.0133  0.0000</r>
       <r>   8.0134  0.0000</r>
       <r>   8.0134  0.0000</r>
       <r>   8.0134  0.0000</r>
       <r>   8.0134  0.0000</r>
       <r>   8.0136  0.0000</r>
       <r>   8.0136  0.0000</r>
       <r>   8.2341  0.0000</r>
       <r>   8.2341  0.0000</r>
       <r>   8.2341  0.0000</r>
       <r>   8.2341  0.0000</r>
       <r>   9.0460  0.0000</r>
       <r>   9.0460  0.0000</r>
       <r>   9.0460  0.0000</r>
       <r>   9.0460  0.0000</r>
       <r>  10.1944  0.0000</r>
       <r>  10.1944  0.0000</r>
       <r>  10.1945  0.0000</r>
       <r>  10.1946  0.0000</r>
      </set>
      <set comment="kpoint 194">
       <r>  -2.1188  1.0000</r>
       <r>  -2.1187  1.0000</r>
       <r>  -2.1187  1.0000</r>
       <r>  -2.1187  1.0000</r>
       <r>  -1.4129  1.0000</r>
       <r>  -1.4129  1.0000</r>
       <r>  -1.4129  1.0000</r>
       <r>  -1.4129  1.0000</r>
       <r>   1.3773  1.0000</r>
       <r>   1.3773  1.0000</r>
       <r>   1.3773  1.0000</r>
       <r>   1.3773  1.0000</r>
       <r>   2.0637  1.0000</r>
       <r>   2.0637  1.0000</r>
       <r>   2.0637  1.0000</r>
       <r>   2.0637  1.0000</r>
       <r>   2.0637  1.0000</r>
       <r>   2.0637  1.0000</r>
       <r>   2.0637  1.0000</r>
       <r>   2.0637  1.0000</r>
       <r>   2.7508  1.0000</r>
       <r>   2.7508  1.0000</r>
       <r>   2.7508  1.0000</r>
       <r>   2.7508  1.0000</r>
       <r>   2.7508  1.0000</r>
       <r>   2.7509  1.0000</r>
       <r>   2.7509  1.0000</r>
       <r>   2.7509  1.0000</r>
       <r>   3.4228  1.0000</r>
       <r>   3.4228  1.0000</r>
       <r>   3.4228  1.0000</r>
       <r>   3.4229  1.0000</r>
       <r>   5.4703  1.0000</r>
       <r>   5.4703  1.0000</r>
       <r>   5.4704  1.0000</r>
       <r>   5.4704  1.0000</r>
       <r>   5.4704  1.0000</r>
       <r>   5.4704  1.0000</r>
       <r>   5.4705  1.0000</r>
       <r>   5.4705  1.0000</r>
       <r>   6.1382  1.0000</r>
       <r>   6.1382  1.0000</r>
       <r>   6.1382  1.0000</r>
       <r>   6.1382  1.0000</r>
       <r>   6.8107  1.0000</r>
       <r>   6.8107  1.0000</r>
       <r>   6.8107  1.0000</r>
       <r>   6.8107  1.0000</r>
       <r>   7.4628  0.0000</r>
       <r>   7.4628  0.0000</r>
       <r>   7.4629  0.0000</r>
       <r>   7.4629  0.0000</r>
       <r>   7.4629  0.0000</r>
       <r>   7.4629  0.0000</r>
       <r>   7.4630  0.0000</r>
       <r>   7.4630  0.0000</r>
       <r>   8.9808  0.0000</r>
       <r>   8.9808  0.0000</r>
       <r>   8.9808  0.0000</r>
       <r>   8.9808  0.0000</r>
       <r>   9.4721  0.0000</r>
       <r>   9.4721  0.0000</r>
       <r>   9.4721  0.0000</r>
       <r>   9.4721  0.0000</r>
       <r>  10.2915  0.0000</r>
       <r>  10.2916  0.0000</r>
       <r>  10.2916  0.0000</r>
       <r>  10.2917  0.0000</r>
      </set>
      <set comment="kpoint 195">
       <r>  -1.9862  1.0000</r>
       <r>  -1.9861  1.0000</r>
       <r>  -1.9861  1.0000</r>
       <r>  -1.9861  1.0000</r>
       <r>  -1.6332  1.0000</r>
       <r>  -1.6331  1.0000</r>
       <r>  -1.6331  1.0000</r>
       <r>  -1.6331  1.0000</r>
       <r>   1.8507  1.0000</r>
       <r>   1.8508  1.0000</r>
       <r>   1.8508  1.0000</r>
       <r>   1.8508  1.0000</r>
       <r>   2.1927  1.0000</r>
       <r>   2.1928  1.0000</r>
       <r>   2.1928  1.0000</r>
       <r>   2.1928  1.0000</r>
       <r>   2.1928  1.0000</r>
       <r>   2.1928  1.0000</r>
       <r>   2.1928  1.0000</r>
       <r>   2.1928  1.0000</r>
       <r>   2.5364  1.0000</r>
       <r>   2.5364  1.0000</r>
       <r>   2.5364  1.0000</r>
       <r>   2.5364  1.0000</r>
       <r>   2.5364  1.0000</r>
       <r>   2.5364  1.0000</r>
       <r>   2.5364  1.0000</r>
       <r>   2.5364  1.0000</r>
       <r>   2.8750  1.0000</r>
       <r>   2.8751  1.0000</r>
       <r>   2.8751  1.0000</r>
       <r>   2.8751  1.0000</r>
       <r>   5.9318  1.0000</r>
       <r>   5.9318  1.0000</r>
       <r>   5.9319  1.0000</r>
       <r>   5.9319  1.0000</r>
       <r>   5.9319  1.0000</r>
       <r>   5.9319  1.0000</r>
       <r>   5.9320  1.0000</r>
       <r>   5.9320  1.0000</r>
       <r>   6.2646  1.0000</r>
       <r>   6.2646  1.0000</r>
       <r>   6.2646  1.0000</r>
       <r>   6.2646  1.0000</r>
       <r>   6.6009  1.0000</r>
       <r>   6.6009  1.0000</r>
       <r>   6.6009  1.0000</r>
       <r>   6.6009  1.0000</r>
       <r>   6.9298  1.0000</r>
       <r>   6.9298  1.0000</r>
       <r>   6.9299  1.0000</r>
       <r>   6.9299  1.0000</r>
       <r>   6.9299  1.0000</r>
       <r>   6.9299  1.0000</r>
       <r>   6.9300  1.0000</r>
       <r>   6.9300  1.0000</r>
       <r>   9.7597  0.0000</r>
       <r>   9.7598  0.0000</r>
       <r>   9.7598  0.0000</r>
       <r>   9.7598  0.0000</r>
       <r>   9.9238  0.0000</r>
       <r>   9.9238  0.0000</r>
       <r>   9.9238  0.0000</r>
       <r>   9.9239  0.0000</r>
       <r>  10.4154  0.0000</r>
       <r>  10.4155  0.0000</r>
       <r>  10.4156  0.0000</r>
       <r>  10.4156  0.0000</r>
      </set>
      <set comment="kpoint 196">
       <r>  -1.8288  1.0000</r>
       <r>  -1.8247  1.0000</r>
       <r>  -1.8247  1.0000</r>
       <r>  -1.8243  1.0000</r>
       <r>  -1.8242  1.0000</r>
       <r>  -1.8238  1.0000</r>
       <r>  -1.8238  1.0000</r>
       <r>  -1.8198  1.0000</r>
       <r>   2.3403  1.0000</r>
       <r>   2.3465  1.0000</r>
       <r>   2.3465  1.0000</r>
       <r>   2.3497  1.0000</r>
       <r>   2.3499  1.0000</r>
       <r>   2.3499  1.0000</r>
       <r>   2.3503  1.0000</r>
       <r>   2.3503  1.0000</r>
       <r>   2.3503  1.0000</r>
       <r>   2.3503  1.0000</r>
       <r>   2.3503  1.0000</r>
       <r>   2.3504  1.0000</r>
       <r>   2.3504  1.0000</r>
       <r>   2.3504  1.0000</r>
       <r>   2.3504  1.0000</r>
       <r>   2.3504  1.0000</r>
       <r>   2.3505  1.0000</r>
       <r>   2.3505  1.0000</r>
       <r>   2.3508  1.0000</r>
       <r>   2.3509  1.0000</r>
       <r>   2.3511  1.0000</r>
       <r>   2.3542  1.0000</r>
       <r>   2.3542  1.0000</r>
       <r>   2.3605  1.0000</r>
       <r>   6.4131  1.0000</r>
       <r>   6.4131  1.0000</r>
       <r>   6.4148  1.0000</r>
       <r>   6.4168  1.0000</r>
       <r>   6.4181  1.0000</r>
       <r>   6.4185  1.0000</r>
       <r>   6.4185  1.0000</r>
       <r>   6.4185  1.0000</r>
       <r>   6.4188  1.0000</r>
       <r>   6.4188  1.0000</r>
       <r>   6.4188  1.0000</r>
       <r>   6.4188  1.0000</r>
       <r>   6.4188  1.0000</r>
       <r>   6.4188  1.0000</r>
       <r>   6.4188  1.0000</r>
       <r>   6.4189  1.0000</r>
       <r>   6.4191  1.0000</r>
       <r>   6.4191  1.0000</r>
       <r>   6.4191  1.0000</r>
       <r>   6.4195  1.0000</r>
       <r>   6.4208  1.0000</r>
       <r>   6.4229  1.0000</r>
       <r>   6.4245  1.0000</r>
       <r>   6.4245  1.0000</r>
       <r>  10.3989  0.0000</r>
       <r>  10.3989  0.0000</r>
       <r>  10.3990  0.0000</r>
       <r>  10.3996  0.0000</r>
       <r>  10.4009  0.0000</r>
       <r>  10.4016  0.0000</r>
       <r>  10.4016  0.0000</r>
       <r>  10.4016  0.0000</r>
       <r>  10.5649  0.0000</r>
       <r>  10.5654  0.0000</r>
       <r>  10.5660  0.0000</r>
       <r>  10.5671  0.0000</r>
      </set>
     </set>
    </set>
   </array>
  </eigenvalues>
 </calculation>
 <structure name="finalpos" >
  <crystal>
   <varray name="basis" >
    <v>       8.31685112      0.00000000      0.00000000</v>
    <v>       0.00000000      8.31685112      0.00000000</v>
    <v>       0.00000000      0.00000000      8.31685112</v>
   </varray>
   <i name="volume">    575.27669668</i>
   <varray name="rec_basis" >
    <v>       0.12023781      0.00000000      0.00000000</v>
    <v>       0.00000000      0.12023781      0.00000000</v>
    <v>       0.00000000      0.00000000      0.12023781</v>
   </varray>
  </crystal>
  <varray name="positions" >
   <v>       0.25120238      0.25000000      0.00000000</v>
   <v>       0.75000000      0.25000000      0.00000000</v>
   <v>       0.25000000      0.75000000      0.00000000</v>
   <v>       0.75000000      0.75000000      0.00000000</v>
   <v>       0.25000000      0.25000000      0.50000000</v>
   <v>       0.75000000      0.25000000      0.50000000</v>
   <v>       0.25000000      0.75000000      0.50000000</v>
   <v>       0.75000000      0.75000000      0.50000000</v>
   <v>       0.25000000      0.00000000      0.25000000</v>
   <v>       0.75000000      0.00000000      0.25000000</v>
   <v>       0.25000000      0.50000000      0.25000000</v>
   <v>       0.75000000      0.50000000      0.25000000</v>
   <v>       0.25000000      0.00000000      0.75000000</v>
   <v>       0.75000000      0.00000000      0.75000000</v>
   <v>       0.25000000      0.50000000      0.75000000</v>
   <v>       0.75000000      0.50000000      0.75000000</v>
   <v>       0.00000000      0.25000000      0.25000000</v>
   <v>       0.50000000      0.25000000      0.25000000</v>
   <v>       0.00000000      0.75000000      0.25000000</v>
   <v>       0.50000000      0.75000000      0.25000000</v>
   <v>       0.00000000      0.25000000      0.75000000</v>
   <v>       0.50000000      0.25000000      0.75000000</v>
   <v>       0.00000000      0.75000000      0.75000000</v>
   <v>       0.50000000      0.75000000      0.75000000</v>
   <v>       0.00000000      0.00000000      0.00000000</v>
   <v>       0.50000000      0.00000000      0.00000000</v>
   <v>       0.00000000      0.50000000      0.00000000</v>
   <v>       0.50000000      0.50000000      0.00000000</v>
   <v>       0.00000000      0.00000000      0.50000000</v>
   <v>       0.50000000      0.00000000      0.50000000</v>
   <v>       0.00000000      0.50000000      0.50000000</v>
   <v>       0.50000000      0.50000000      0.50000000</v>
  </varray>
 </structure>
</modeling>
