natom:   32
displacements:
- atom:    1
  direction:
    [   1.0000000000000000,  0.0000000000000000,  0.0000000000000000 ]
  displacement:
    [   0.0100000000000000,  0.0000000000000000,  0.0000000000000000 ]
lattice:
- [     7.912911804000000,     0.000000000000000,     0.000000000000000 ] # a
- [     0.000000000000000,     7.912911804000000,     0.000000000000000 ] # b
- [     0.000000000000000,     0.000000000000000,     7.912911804000000 ] # c
points:
- symbol: Al # 1
  coordinates: [  0.250000000000000,  0.250000000000000,  0.000000000000000 ]
  mass: 26.981539
- symbol: Al # 2
  coordinates: [  0.750000000000000,  0.250000000000000,  0.000000000000000 ]
  mass: 26.981539
- symbol: Al # 3
  coordinates: [  0.250000000000000,  0.750000000000000,  0.000000000000000 ]
  mass: 26.981539
- symbol: Al # 4
  coordinates: [  0.750000000000000,  0.750000000000000,  0.000000000000000 ]
  mass: 26.981539
- symbol: Al # 5
  coordinates: [  0.250000000000000,  0.250000000000000,  0.500000000000000 ]
  mass: 26.981539
- symbol: Al # 6
  coordinates: [  0.750000000000000,  0.250000000000000,  0.500000000000000 ]
  mass: 26.981539
- symbol: Al # 7
  coordinates: [  0.250000000000000,  0.750000000000000,  0.500000000000000 ]
  mass: 26.981539
- symbol: Al # 8
  coordinates: [  0.750000000000000,  0.750000000000000,  0.500000000000000 ]
  mass: 26.981539
- symbol: Al # 9
  coordinates: [  0.250000000000000,  0.000000000000000,  0.250000000000000 ]
  mass: 26.981539
- symbol: Al # 10
  coordinates: [  0.750000000000000,  0.000000000000000,  0.250000000000000 ]
  mass: 26.981539
- symbol: Al # 11
  coordinates: [  0.250000000000000,  0.500000000000000,  0.250000000000000 ]
  mass: 26.981539
- symbol: Al # 12
  coordinates: [  0.750000000000000,  0.500000000000000,  0.250000000000000 ]
  mass: 26.981539
- symbol: Al # 13
  coordinates: [  0.250000000000000,  0.000000000000000,  0.750000000000000 ]
  mass: 26.981539
- symbol: Al # 14
  coordinates: [  0.750000000000000,  0.000000000000000,  0.750000000000000 ]
  mass: 26.981539
- symbol: Al # 15
  coordinates: [  0.250000000000000,  0.500000000000000,  0.750000000000000 ]
  mass: 26.981539
- symbol: Al # 16
  coordinates: [  0.750000000000000,  0.500000000000000,  0.750000000000000 ]
  mass: 26.981539
- symbol: Al # 17
  coordinates: [  0.000000000000000,  0.250000000000000,  0.250000000000000 ]
  mass: 26.981539
- symbol: Al # 18
  coordinates: [  0.500000000000000,  0.250000000000000,  0.250000000000000 ]
  mass: 26.981539
- symbol: Al # 19
  coordinates: [  0.000000000000000,  0.750000000000000,  0.250000000000000 ]
  mass: 26.981539
- symbol: Al # 20
  coordinates: [  0.500000000000000,  0.750000000000000,  0.250000000000000 ]
  mass: 26.981539
- symbol: Al # 21
  coordinates: [  0.000000000000000,  0.250000000000000,  0.750000000000000 ]
  mass: 26.981539
- symbol: Al # 22
  coordinates: [  0.500000000000000,  0.250000000000000,  0.750000000000000 ]
  mass: 26.981539
- symbol: Al # 23
  coordinates: [  0.000000000000000,  0.750000000000000,  0.750000000000000 ]
  mass: 26.981539
- symbol: Al # 24
  coordinates: [  0.500000000000000,  0.750000000000000,  0.750000000000000 ]
  mass: 26.981539
- symbol: Al # 25
  coordinates: [  0.000000000000000,  0.000000000000000,  0.000000000000000 ]
  mass: 26.981539
- symbol: Al # 26
  coordinates: [  0.500000000000000,  0.000000000000000,  0.000000000000000 ]
  mass: 26.981539
- symbol: Al # 27
  coordinates: [  0.000000000000000,  0.500000000000000,  0.000000000000000 ]
  mass: 26.981539
- symbol: Al # 28
  coordinates: [  0.500000000000000,  0.500000000000000,  0.000000000000000 ]
  mass: 26.981539
- symbol: Al # 29
  coordinates: [  0.000000000000000,  0.000000000000000,  0.500000000000000 ]
  mass: 26.981539
- symbol: Al # 30
  coordinates: [  0.500000000000000,  0.000000000000000,  0.500000000000000 ]
  mass: 26.981539
- symbol: Al # 31
  coordinates: [  0.000000000000000,  0.500000000000000,  0.500000000000000 ]
  mass: 26.981539
- symbol: Al # 32
  coordinates: [  0.500000000000000,  0.500000000000000,  0.500000000000000 ]
  mass: 26.981539