32   
1    

1    
  0.0100000000000000   0.0000000000000000   0.0000000000000000
  -0.0587427600   -0.0000000000    0.0000000000
   0.0037758900   -0.0000000000   -0.0000000000
   0.0006817100   -0.0000000000    0.0000000000
   0.0001485200    0.0000000000   -0.0000000000
   0.0006817100    0.0000000000    0.0000000000
   0.0001485200    0.0000000000   -0.0000000000
   0.0010317200   -0.0000000000    0.0000000000
  -0.0010410600    0.0000000000    0.0000000000
  -0.0017430300    0.0000329400   -0.0000329400
  -0.0012850700    0.0000115100   -0.0000115100
  -0.0017430300   -0.0000329400   -0.0000329400
  -0.0012850700   -0.0000115100   -0.0000115100
  -0.0017430300    0.0000329400    0.0000329400
  -0.0012850700    0.0000115100    0.0000115100
  -0.0017430300   -0.0000329400    0.0000329400
  -0.0012850700   -0.0000115100    0.0000115100
   0.0078748300   -0.0000000000   -0.0088949800
   0.0080602700    0.0000000000    0.0091287400
   0.0002131500   -0.0000000000    0.0002197100
   0.0002087800   -0.0000000000   -0.0002384100
   0.0078748300    0.0000000000    0.0088949800
   0.0080602700   -0.0000000000   -0.0091287400
   0.0002131500   -0.0000000000   -0.0002197100
   0.0002087800   -0.0000000000    0.0002384100
   0.0078748300    0.0088949800    0.0000000000
   0.0080602700   -0.0091287400   -0.0000000000
   0.0078748300   -0.0088949800    0.0000000000
   0.0080602700    0.0091287400    0.0000000000
   0.0002131500   -0.0002197100    0.0000000000
   0.0002087800    0.0002384100   -0.0000000000
   0.0002131500    0.0002197100    0.0000000000
   0.0002087800   -0.0002384100   -0.0000000000
