36   
2    

1    
  0.0068817775356999   0.0000193216961907   0.0072553955523591
  -0.0430226900    0.0000889800   -0.0466296000
   0.0100041100   -0.0044129900    0.0018449600
   0.0098864600    0.0032377600    0.0018494400
   0.0037592100   -0.0081043700    0.0018427700
   0.0035927700    0.0068628700    0.0017087100
   0.0028191400   -0.0005719800    0.0008487300
   0.0037338200   -0.0001322800    0.0018350500
   0.0029740300   -0.0004054000    0.0008460900
   0.0035192200   -0.0010172400    0.0017106300
  -0.0014338200   -0.0007244600    0.0132469800
   0.0019970700    0.0004728600   -0.0002134500
   0.0020736600   -0.0014350200   -0.0001994400
   0.0010127200   -0.0002847500   -0.0002075400
   0.0011705900   -0.0008068600   -0.0002440000
   0.0002503100   -0.0006063200   -0.0009881300
   0.0010118600   -0.0018630500   -0.0002130500
   0.0004051300   -0.0004185900   -0.0009881800
   0.0010857700    0.0010969500   -0.0002380200
   0.0106629900   -0.0060262800    0.0111058000
  -0.0012238500    0.0001144800   -0.0001818900
  -0.0028621200   -0.0009142900   -0.0016784700
  -0.0006052400    0.0084018400    0.0048942000
  -0.0037161100   -0.0002495400   -0.0014601400
  -0.0010932500    0.0003293100    0.0005751100
  -0.0005339500    0.0007954100   -0.0001177900
  -0.0006034600    0.0002035300   -0.0002299300
  -0.0021816600    0.0017765700   -0.0004215300
  -0.0029957500    0.0018853500   -0.0018770100
  -0.0011634800    0.0002714600   -0.0001164700
   0.0104336900    0.0067977900    0.0109052400
  -0.0006167400   -0.0071409800    0.0046138400
  -0.0016435500    0.0010436200    0.0005094900
  -0.0032106400    0.0015496100   -0.0014282200
  -0.0006300000    0.0006616700   -0.0001912800
  -0.0005869100    0.0001869700   -0.0001957400
  -0.0022693300   -0.0006626200   -0.0005171700

1    
 -0.0068817775356999  -0.0000193216961907  -0.0072553955523591
   0.0446318300   -0.0013170200    0.0465434500
  -0.0082042100    0.0034722700   -0.0018455300
  -0.0082787400   -0.0042804700   -0.0018422000
  -0.0023044200    0.0067425400   -0.0018484800
  -0.0016056700   -0.0079571500   -0.0016977900
  -0.0011903100   -0.0003593100   -0.0008361200
  -0.0022890800   -0.0006870100   -0.0018551600
  -0.0010339500   -0.0001947900   -0.0008394200
  -0.0017261500    0.0000742400   -0.0016954900
   0.0031789200   -0.0003103300   -0.0132347200
  -0.0003682100   -0.0014083900    0.0001976200
  -0.0003025800    0.0004174200    0.0002122200
   0.0004511600   -0.0011322000    0.0002039100
   0.0007875800   -0.0003392900    0.0002436800
   0.0013861900   -0.0003205300    0.0009970400
   0.0004390100    0.0010219300    0.0001973900
   0.0015421100   -0.0001352300    0.0009969000
   0.0007123300   -0.0020685500    0.0002496800
  -0.0121059400    0.0067743800   -0.0106502100
  -0.0007014400    0.0004433400    0.0001995100
   0.0013501900    0.0017498900    0.0015797300
  -0.0010555300   -0.0072332200   -0.0047026500
   0.0017208500    0.0013824200    0.0014518200
  -0.0003309300    0.0010849500   -0.0005702800
  -0.0012435500    0.0002159200    0.0000995500
  -0.0010206000    0.0007438500    0.0002124600
   0.0004620800   -0.0006901900    0.0004377200
   0.0012715300   -0.0009247000    0.0019688800
  -0.0007978200    0.0002900500    0.0001141800
  -0.0122227700   -0.0061816600   -0.0113607000
  -0.0009545400    0.0083113200   -0.0047923200
  -0.0003492700    0.0000959200   -0.0005148200
   0.0017940200   -0.0001440400    0.0014423700
  -0.0011497600    0.0003729100    0.0002058300
  -0.0010296100    0.0007424900    0.0002222800
   0.0005372600    0.0017482400    0.0005096700
