# Thermal properties / unit cell (natom)

unit:
  temperature:   K
  free_energy:   kJ/mol
  entropy:       J/K/mol
  heat_capacity: J/K/mol

natom:     4
num_modes: 1327104
num_integrated_modes: 1327104

zero_point_energy:       2.7912803
high_T_entropy:        544.9929585

thermal_properties:
- temperature:         0.0000000
  free_energy:         2.7912803
  entropy:             0.0000000
  heat_capacity:       0.0000000
  energy:              2.7912803

- temperature:        10.0000000
  free_energy:         2.7564081
  entropy:            11.3213924
  heat_capacity:      23.9832976
  energy:              2.8696220

- temperature:        20.0000000
  free_energy:         2.5087073
  entropy:            38.8134907
  heat_capacity:      56.2648630
  energy:              3.2849771

- temperature:        30.0000000
  free_energy:         1.9848863
  entropy:            65.3567487
  heat_capacity:      73.9594233
  energy:              3.9455888

- temperature:        40.0000000
  free_energy:         1.2146477
  entropy:            88.0515476
  heat_capacity:      83.3133037
  energy:              4.7367096

- temperature:        50.0000000
  free_energy:         0.2355066
  entropy:           107.2570262
  heat_capacity:      88.5452772
  energy:              5.5983579

- temperature:        60.0000000
  free_energy:        -0.9213047
  entropy:           123.7010668
  heat_capacity:      91.6872581
  energy:              6.5007593

- temperature:        70.0000000
  free_energy:        -2.2313701
  entropy:           137.9964049
  heat_capacity:      93.6970058
  energy:              7.4283783

- temperature:        80.0000000
  free_energy:        -3.6756133
  entropy:           150.6018880
  heat_capacity:      95.0513050
  energy:              8.3725377

- temperature:        90.0000000
  free_energy:        -5.2389108
  entropy:           161.8554074
  heat_capacity:      96.0035947
  energy:              9.3280759

- temperature:       100.0000000
  free_energy:        -6.9090588
  entropy:           172.0081166
  heat_capacity:      96.6970197
  energy:             10.2917528

- temperature:       110.0000000
  free_energy:        -8.6760413
  entropy:           181.2498381
  heat_capacity:      97.2168082
  energy:             11.2614409

- temperature:       120.0000000
  free_energy:       -10.5315094
  entropy:           189.7266546
  heat_capacity:      97.6160491
  energy:             12.2356892

- temperature:       130.0000000
  free_energy:       -12.4684086
  entropy:           197.5529571
  heat_capacity:      97.9291135
  energy:             13.2134759

- temperature:       140.0000000
  free_energy:       -14.4807055
  entropy:           204.8197651
  heat_capacity:      98.1790058
  energy:             14.1940616

- temperature:       150.0000000
  free_energy:       -16.5631853
  entropy:           211.6005601
  heat_capacity:      98.3815715
  energy:             15.1768987

- temperature:       160.0000000
  free_energy:       -18.7112981
  entropy:           217.9554442
  heat_capacity:      98.5480023
  energy:             16.1615730

- temperature:       170.0000000
  free_energy:       -20.9210412
  entropy:           223.9341568
  heat_capacity:      98.6863788
  energy:             17.1477655

- temperature:       180.0000000
  free_energy:       -23.1888667
  entropy:           229.5782986
  heat_capacity:      98.8026500
  energy:             18.1352270

- temperature:       190.0000000
  free_energy:       -25.5116096
  entropy:           234.9229965
  heat_capacity:      98.9012722
  energy:             19.1237598

- temperature:       200.0000000
  free_energy:       -27.8864287
  entropy:           239.9981686
  heat_capacity:      98.9856357
  energy:             20.1132050

- temperature:       210.0000000
  free_energy:       -30.3107605
  entropy:           244.8294964
  heat_capacity:      99.0583561
  energy:             21.1034337

- temperature:       220.0000000
  free_energy:       -32.7822802
  entropy:           249.4391833
  heat_capacity:      99.1214768
  energy:             22.0943402

- temperature:       230.0000000
  free_energy:       -35.2988700
  entropy:           253.8465511
  heat_capacity:      99.1766128
  energy:             23.0858367

- temperature:       240.0000000
  free_energy:       -37.8585934
  entropy:           258.0685147
  heat_capacity:      99.2250538
  energy:             24.0778501

- temperature:       250.0000000
  free_energy:       -40.4596721
  entropy:           262.1199644
  heat_capacity:      99.2678397
  energy:             25.0703189

- temperature:       260.0000000
  free_energy:       -43.1004684
  entropy:           266.0140742
  heat_capacity:      99.3058163
  energy:             26.0631909

- temperature:       270.0000000
  free_energy:       -45.7794683
  entropy:           269.7625552
  heat_capacity:      99.3396772
  energy:             27.0564216

- temperature:       280.0000000
  free_energy:       -48.4952690
  entropy:           273.3758632
  heat_capacity:      99.3699957
  energy:             28.0499727

- temperature:       290.0000000
  free_energy:       -51.2465664
  entropy:           276.8633712
  heat_capacity:      99.3972485
  energy:             29.0438113

- temperature:       300.0000000
  free_energy:       -54.0321453
  entropy:           280.2335136
  heat_capacity:      99.4218349
  energy:             30.0379088

- temperature:       310.0000000
  free_energy:       -56.8508709
  entropy:           283.4939068
  heat_capacity:      99.4440915
  energy:             31.0322402

- temperature:       320.0000000
  free_energy:       -59.7016807
  entropy:           286.6514515
  heat_capacity:      99.4643033
  energy:             32.0267838

- temperature:       330.0000000
  free_energy:       -62.5835781
  entropy:           289.7124192
  heat_capacity:      99.4827129
  energy:             33.0215203

- temperature:       340.0000000
  free_energy:       -65.4956263
  entropy:           292.6825264
  heat_capacity:      99.4995284
  energy:             34.0164327

- temperature:       350.0000000
  free_energy:       -68.4369432
  entropy:           295.5669980
  heat_capacity:      99.5149284
  energy:             35.0115061

- temperature:       360.0000000
  free_energy:       -71.4066968
  entropy:           298.3706219
  heat_capacity:      99.5290673
  energy:             36.0067271

- temperature:       370.0000000
  free_energy:       -74.4041008
  entropy:           301.0977961
  heat_capacity:      99.5420791
  energy:             37.0020837

- temperature:       380.0000000
  free_energy:       -77.4284114
  entropy:           303.7525703
  heat_capacity:      99.5540803
  energy:             37.9975653

- temperature:       390.0000000
  free_energy:       -80.4789234
  entropy:           306.3386812
  heat_capacity:      99.5651729
  energy:             38.9931623

- temperature:       400.0000000
  free_energy:       -83.5549677
  entropy:           308.8595843
  heat_capacity:      99.5754463
  energy:             39.9888660

- temperature:       410.0000000
  free_energy:       -86.6559084
  entropy:           311.3184809
  heat_capacity:      99.5849791
  energy:             40.9846688

- temperature:       420.0000000
  free_energy:       -89.7811405
  entropy:           313.7183427
  heat_capacity:      99.5938408
  energy:             41.9805634

- temperature:       430.0000000
  free_energy:       -92.9300877
  entropy:           316.0619332
  heat_capacity:      99.6020930
  energy:             42.9765435

- temperature:       440.0000000
  free_energy:       -96.1022002
  entropy:           318.3518264
  heat_capacity:      99.6097902
  energy:             43.9726034

- temperature:       450.0000000
  free_energy:       -99.2969533
  entropy:           320.5904243
  heat_capacity:      99.6169811
  energy:             44.9687377

- temperature:       460.0000000
  free_energy:      -102.5138452
  entropy:           322.7799711
  heat_capacity:      99.6237091
  energy:             45.9649415

- temperature:       470.0000000
  free_energy:      -105.7523962
  entropy:           324.9225673
  heat_capacity:      99.6300131
  energy:             46.9612104

- temperature:       480.0000000
  free_energy:      -109.0121467
  entropy:           327.0201815
  heat_capacity:      99.6359280
  energy:             47.9575404

- temperature:       490.0000000
  free_energy:      -112.2926561
  entropy:           329.0746610
  heat_capacity:      99.6414851
  energy:             48.9539278

- temperature:       500.0000000
  free_energy:      -115.5935019
  entropy:           331.0877419
  heat_capacity:      99.6467127
  energy:             49.9503690

- temperature:       510.0000000
  free_energy:      -118.9142784
  entropy:           333.0610577
  heat_capacity:      99.6516364
  energy:             50.9468610

- temperature:       520.0000000
  free_energy:      -122.2545956
  entropy:           334.9961471
  heat_capacity:      99.6562792
  energy:             51.9434008

- temperature:       530.0000000
  free_energy:      -125.6140787
  entropy:           336.8944613
  heat_capacity:      99.6606621
  energy:             52.9399858

- temperature:       540.0000000
  free_energy:      -128.9923669
  entropy:           338.7573706
  heat_capacity:      99.6648041
  energy:             53.9366133

- temperature:       550.0000000
  free_energy:      -132.3891125
  entropy:           340.5861701
  heat_capacity:      99.6687226
  energy:             54.9332811

- temperature:       560.0000000
  free_energy:      -135.8039806
  entropy:           342.3820851
  heat_capacity:      99.6724334
  energy:             55.9299870

- temperature:       570.0000000
  free_energy:      -139.2366484
  entropy:           344.1462764
  heat_capacity:      99.6759508
  energy:             56.9267291

- temperature:       580.0000000
  free_energy:      -142.6868041
  entropy:           345.8798441
  heat_capacity:      99.6792881
  energy:             57.9235055

- temperature:       590.0000000
  free_energy:      -146.1541467
  entropy:           347.5838322
  heat_capacity:      99.6824573
  energy:             58.9203143

- temperature:       600.0000000
  free_energy:      -149.6383855
  entropy:           349.2592326
  heat_capacity:      99.6854697
  energy:             59.9171541

- temperature:       610.0000000
  free_energy:      -153.1392392
  entropy:           350.9069876
  heat_capacity:      99.6883352
  energy:             60.9140232

- temperature:       620.0000000
  free_energy:      -156.6564361
  entropy:           352.5279942
  heat_capacity:      99.6910634
  energy:             61.9109203

- temperature:       630.0000000
  free_energy:      -160.1897128
  entropy:           354.1231061
  heat_capacity:      99.6936629
  energy:             62.9078441

- temperature:       640.0000000
  free_energy:      -163.7388146
  entropy:           355.6931371
  heat_capacity:      99.6961415
  energy:             63.9047932

- temperature:       650.0000000
  free_energy:      -167.3034945
  entropy:           357.2388631
  heat_capacity:      99.6985068
  energy:             64.9017665

- temperature:       660.0000000
  free_energy:      -170.8835133
  entropy:           358.7610246
  heat_capacity:      99.7007655
  energy:             65.8987630

- temperature:       670.0000000
  free_energy:      -174.4786388
  entropy:           360.2603288
  heat_capacity:      99.7029239
  energy:             66.8957815

- temperature:       680.0000000
  free_energy:      -178.0886459
  entropy:           361.7374516
  heat_capacity:      99.7049879
  energy:             67.8928211

- temperature:       690.0000000
  free_energy:      -181.7133161
  entropy:           363.1930392
  heat_capacity:      99.7069629
  energy:             68.8898809

- temperature:       700.0000000
  free_energy:      -185.3524370
  entropy:           364.6277101
  heat_capacity:      99.7088539
  energy:             69.8869601

- temperature:       710.0000000
  free_energy:      -189.0058025
  entropy:           366.0420568
  heat_capacity:      99.7106657
  energy:             70.8840578

- temperature:       720.0000000
  free_energy:      -192.6732123
  entropy:           367.4366465
  heat_capacity:      99.7124025
  energy:             71.8811732

- temperature:       730.0000000
  free_energy:      -196.3544714
  entropy:           368.8120233
  heat_capacity:      99.7140686
  energy:             72.8783056

- temperature:       740.0000000
  free_energy:      -200.0493904
  entropy:           370.1687091
  heat_capacity:      99.7156676
  energy:             73.8754543

- temperature:       750.0000000
  free_energy:      -203.7577850
  entropy:           371.5072049
  heat_capacity:      99.7172031
  energy:             74.8726187

- temperature:       760.0000000
  free_energy:      -207.4794755
  entropy:           372.8279917
  heat_capacity:      99.7186784
  energy:             75.8697982

- temperature:       770.0000000
  free_energy:      -211.2142873
  entropy:           374.1315317
  heat_capacity:      99.7200967
  energy:             76.8669921

- temperature:       780.0000000
  free_energy:      -214.9620501
  entropy:           375.4182693
  heat_capacity:      99.7214608
  energy:             77.8641999

- temperature:       790.0000000
  free_energy:      -218.7225981
  entropy:           376.6886320
  heat_capacity:      99.7227735
  energy:             78.8614211

- temperature:       800.0000000
  free_energy:      -222.4957696
  entropy:           377.9430310
  heat_capacity:      99.7240373
  energy:             79.8586552

- temperature:       810.0000000
  free_energy:      -226.2814069
  entropy:           379.1818625
  heat_capacity:      99.7252546
  energy:             80.8559017

- temperature:       820.0000000
  free_energy:      -230.0793562
  entropy:           380.4055078
  heat_capacity:      99.7264277
  energy:             81.8531602

- temperature:       830.0000000
  free_energy:      -233.8894676
  entropy:           381.6143347
  heat_capacity:      99.7275587
  energy:             82.8504301

- temperature:       840.0000000
  free_energy:      -237.7115947
  entropy:           382.8086975
  heat_capacity:      99.7286495
  energy:             83.8477112

- temperature:       850.0000000
  free_energy:      -241.5455945
  entropy:           383.9889382
  heat_capacity:      99.7297021
  energy:             84.8450030

- temperature:       860.0000000
  free_energy:      -245.3913275
  entropy:           385.1553868
  heat_capacity:      99.7307182
  energy:             85.8423051

- temperature:       870.0000000
  free_energy:      -249.2486573
  entropy:           386.3083616
  heat_capacity:      99.7316995
  energy:             86.8396173

- temperature:       880.0000000
  free_energy:      -253.1174508
  entropy:           387.4481703
  heat_capacity:      99.7326475
  energy:             87.8369390

- temperature:       890.0000000
  free_energy:      -256.9975778
  entropy:           388.5751100
  heat_capacity:      99.7335638
  energy:             88.8342701

- temperature:       900.0000000
  free_energy:      -260.8889111
  entropy:           389.6894681
  heat_capacity:      99.7344497
  energy:             89.8316102

- temperature:       910.0000000
  free_energy:      -264.7913262
  entropy:           390.7915222
  heat_capacity:      99.7353066
  energy:             90.8289590

- temperature:       920.0000000
  free_energy:      -268.7047014
  entropy:           391.8815409
  heat_capacity:      99.7361358
  energy:             91.8263162

- temperature:       930.0000000
  free_energy:      -272.6289177
  entropy:           392.9597843
  heat_capacity:      99.7369383
  energy:             92.8236816

- temperature:       940.0000000
  free_energy:      -276.5638587
  entropy:           394.0265038
  heat_capacity:      99.7377154
  energy:             93.8210549

- temperature:       950.0000000
  free_energy:      -280.5094102
  entropy:           395.0819432
  heat_capacity:      99.7384680
  energy:             94.8184358

- temperature:       960.0000000
  free_energy:      -284.4654607
  entropy:           396.1263385
  heat_capacity:      99.7391973
  energy:             95.8158242

- temperature:       970.0000000
  free_energy:      -288.4319009
  entropy:           397.1599182
  heat_capacity:      99.7399042
  energy:             96.8132197

- temperature:       980.0000000
  free_energy:      -292.4086238
  entropy:           398.1829041
  heat_capacity:      99.7405895
  energy:             97.8106222

- temperature:       990.0000000
  free_energy:      -296.3955244
  entropy:           399.1955110
  heat_capacity:      99.7412542
  energy:             98.8080314

- temperature:      1000.0000000
  free_energy:      -300.3925001
  entropy:           400.1979473
  heat_capacity:      99.7418991
  energy:             99.8054472

- temperature:      1010.0000000
  free_energy:      -304.3994501
  entropy:           401.1904154
  heat_capacity:      99.7425249
  energy:            100.8028694

- temperature:      1020.0000000
  free_energy:      -308.4162758
  entropy:           402.1731113
  heat_capacity:      99.7431324
  energy:            101.8002977

- temperature:      1030.0000000
  free_energy:      -312.4428804
  entropy:           403.1462256
  heat_capacity:      99.7437223
  energy:            102.7977319

- temperature:      1040.0000000
  free_energy:      -316.4791690
  entropy:           404.1099434
  heat_capacity:      99.7442952
  energy:            103.7951720

- temperature:      1050.0000000
  free_energy:      -320.5250486
  entropy:           405.0644442
  heat_capacity:      99.7448519
  energy:            104.7926178

- temperature:      1060.0000000
  free_energy:      -324.5804278
  entropy:           406.0099027
  heat_capacity:      99.7453929
  energy:            105.7900690

- temperature:      1070.0000000
  free_energy:      -328.6452171
  entropy:           406.9464885
  heat_capacity:      99.7459188
  energy:            106.7875256

- temperature:      1080.0000000
  free_energy:      -332.7193285
  entropy:           407.8743666
  heat_capacity:      99.7464302
  energy:            107.7849874

- temperature:      1090.0000000
  free_energy:      -336.8026759
  entropy:           408.7936973
  heat_capacity:      99.7469276
  energy:            108.7824542

- temperature:      1100.0000000
  free_energy:      -340.8951745
  entropy:           409.7046367
  heat_capacity:      99.7474115
  energy:            109.7799259

- temperature:      1110.0000000
  free_energy:      -344.9967412
  entropy:           410.6073365
  heat_capacity:      99.7478823
  energy:            110.7774024

- temperature:      1120.0000000
  free_energy:      -349.1072943
  entropy:           411.5019444
  heat_capacity:      99.7483406
  energy:            111.7748835

- temperature:      1130.0000000
  free_energy:      -353.2267536
  entropy:           412.3886041
  heat_capacity:      99.7487868
  energy:            112.7723691

- temperature:      1140.0000000
  free_energy:      -357.3550403
  entropy:           413.2674557
  heat_capacity:      99.7492214
  energy:            113.7698592

- temperature:      1150.0000000
  free_energy:      -361.4920771
  entropy:           414.1386353
  heat_capacity:      99.7496446
  energy:            114.7673535

- temperature:      1160.0000000
  free_energy:      -365.6377879
  entropy:           415.0022758
  heat_capacity:      99.7500569
  energy:            115.7648520

- temperature:      1170.0000000
  free_energy:      -369.7920979
  entropy:           415.8585064
  heat_capacity:      99.7504587
  energy:            116.7623546

- temperature:      1180.0000000
  free_energy:      -373.9549337
  entropy:           416.7074533
  heat_capacity:      99.7508504
  energy:            117.7598612

- temperature:      1190.0000000
  free_energy:      -378.1262231
  entropy:           417.5492393
  heat_capacity:      99.7512322
  energy:            118.7573716

- temperature:      1200.0000000
  free_energy:      -382.3058951
  entropy:           418.3839840
  heat_capacity:      99.7516045
  energy:            119.7548858

- temperature:      1210.0000000
  free_energy:      -386.4938797
  entropy:           419.2118044
  heat_capacity:      99.7519676
  energy:            120.7524037

- temperature:      1220.0000000
  free_energy:      -390.6901084
  entropy:           420.0328144
  heat_capacity:      99.7523219
  energy:            121.7499251

- temperature:      1230.0000000
  free_energy:      -394.8945137
  entropy:           420.8471250
  heat_capacity:      99.7526675
  energy:            122.7474501

- temperature:      1240.0000000
  free_energy:      -399.1070290
  entropy:           421.6548447
  heat_capacity:      99.7530048
  energy:            123.7449784

- temperature:      1250.0000000
  free_energy:      -403.3275890
  entropy:           422.4560793
  heat_capacity:      99.7533341
  energy:            124.7425101

- temperature:      1260.0000000
  free_energy:      -407.5561293
  entropy:           423.2509320
  heat_capacity:      99.7536555
  energy:            125.7400451

- temperature:      1270.0000000
  free_energy:      -411.7925867
  entropy:           424.0395038
  heat_capacity:      99.7539694
  energy:            126.7375832

- temperature:      1280.0000000
  free_energy:      -416.0368988
  entropy:           424.8218931
  heat_capacity:      99.7542759
  energy:            127.7351244

- temperature:      1290.0000000
  free_energy:      -420.2890042
  entropy:           425.5981961
  heat_capacity:      99.7545754
  energy:            128.7326687

- temperature:      1300.0000000
  free_energy:      -424.5488427
  entropy:           426.3685066
  heat_capacity:      99.7548680
  energy:            129.7302159

- temperature:      1310.0000000
  free_energy:      -428.8163547
  entropy:           427.1329166
  heat_capacity:      99.7551539
  energy:            130.7277660

- temperature:      1320.0000000
  free_energy:      -433.0914817
  entropy:           427.8915156
  heat_capacity:      99.7554333
  energy:            131.7253190

- temperature:      1330.0000000
  free_energy:      -437.3741659
  entropy:           428.6443914
  heat_capacity:      99.7557064
  energy:            132.7228747

- temperature:      1340.0000000
  free_energy:      -441.6643507
  entropy:           429.3916297
  heat_capacity:      99.7559735
  energy:            133.7204331

- temperature:      1350.0000000
  free_energy:      -445.9619800
  entropy:           430.1333142
  heat_capacity:      99.7562346
  energy:            134.7179941

- temperature:      1360.0000000
  free_energy:      -450.2669987
  entropy:           430.8695268
  heat_capacity:      99.7564900
  energy:            135.7155578

- temperature:      1370.0000000
  free_energy:      -454.5793526
  entropy:           431.6003478
  heat_capacity:      99.7567399
  energy:            136.7131239

- temperature:      1380.0000000
  free_energy:      -458.8989880
  entropy:           432.3258555
  heat_capacity:      99.7569843
  energy:            137.7106925

- temperature:      1390.0000000
  free_energy:      -463.2258522
  entropy:           433.0461265
  heat_capacity:      99.7572235
  energy:            138.7082636

- temperature:      1400.0000000
  free_energy:      -467.5598933
  entropy:           433.7612359
  heat_capacity:      99.7574576
  energy:            139.7058370

- temperature:      1410.0000000
  free_energy:      -471.9010600
  entropy:           434.4712572
  heat_capacity:      99.7576867
  energy:            140.7034127

- temperature:      1420.0000000
  free_energy:      -476.2493017
  entropy:           435.1762623
  heat_capacity:      99.7579109
  energy:            141.7009907

- temperature:      1430.0000000
  free_energy:      -480.6045687
  entropy:           435.8763215
  heat_capacity:      99.7581305
  energy:            142.6985709

- temperature:      1440.0000000
  free_energy:      -484.9668119
  entropy:           436.5715036
  heat_capacity:      99.7583456
  energy:            143.6961533

- temperature:      1450.0000000
  free_energy:      -489.3359828
  entropy:           437.2618763
  heat_capacity:      99.7585562
  energy:            144.6937378

- temperature:      1460.0000000
  free_energy:      -493.7120336
  entropy:           437.9475055
  heat_capacity:      99.7587625
  energy:            145.6913244

- temperature:      1470.0000000
  free_energy:      -498.0949173
  entropy:           438.6284560
  heat_capacity:      99.7589646
  energy:            146.6889131

- temperature:      1480.0000000
  free_energy:      -502.4845874
  entropy:           439.3047913
  heat_capacity:      99.7591626
  energy:            147.6865037

- temperature:      1490.0000000
  free_energy:      -506.8809980
  entropy:           439.9765733
  heat_capacity:      99.7593566
  energy:            148.6840963

- temperature:      1500.0000000
  free_energy:      -511.2841039
  entropy:           440.6438631
  heat_capacity:      99.7595468
  energy:            149.6816908

- temperature:      1510.0000000
  free_energy:      -515.6938604
  entropy:           441.3067203
  heat_capacity:      99.7597332
  energy:            150.6792872

- temperature:      1520.0000000
  free_energy:      -520.1102237
  entropy:           441.9652034
  heat_capacity:      99.7599160
  energy:            151.6768855

- temperature:      1530.0000000
  free_energy:      -524.5331501
  entropy:           442.6193697
  heat_capacity:      99.7600951
  energy:            152.6744855

- temperature:      1540.0000000
  free_energy:      -528.9625969
  entropy:           443.2692755
  heat_capacity:      99.7602708
  energy:            153.6720874

- temperature:      1550.0000000
  free_energy:      -533.3985216
  entropy:           443.9149758
  heat_capacity:      99.7604431
  energy:            154.6696909

- temperature:      1560.0000000
  free_energy:      -537.8408826
  entropy:           444.5565249
  heat_capacity:      99.7606121
  energy:            155.6672962

- temperature:      1570.0000000
  free_energy:      -542.2896384
  entropy:           445.1939756
  heat_capacity:      99.7607779
  energy:            156.6649032

- temperature:      1580.0000000
  free_energy:      -546.7447486
  entropy:           445.8273800
  heat_capacity:      99.7609406
  energy:            157.6625118

- temperature:      1590.0000000
  free_energy:      -551.2061727
  entropy:           446.4567891
  heat_capacity:      99.7611002
  energy:            158.6601220

- temperature:      1600.0000000
  free_energy:      -555.6738712
  entropy:           447.0822531
  heat_capacity:      99.7612568
  energy:            159.6577338

- temperature:      1610.0000000
  free_energy:      -560.1478048
  entropy:           447.7038211
  heat_capacity:      99.7614105
  energy:            160.6553471

- temperature:      1620.0000000
  free_energy:      -564.6279348
  entropy:           448.3215412
  heat_capacity:      99.7615613
  energy:            161.6529620

- temperature:      1630.0000000
  free_energy:      -569.1142230
  entropy:           448.9354609
  heat_capacity:      99.7617094
  energy:            162.6505783

- temperature:      1640.0000000
  free_energy:      -573.6066315
  entropy:           449.5456266
  heat_capacity:      99.7618548
  energy:            163.6481961

- temperature:      1650.0000000
  free_energy:      -578.1051231
  entropy:           450.1520840
  heat_capacity:      99.7619976
  energy:            164.6458154

- temperature:      1660.0000000
  free_energy:      -582.6096610
  entropy:           450.7548777
  heat_capacity:      99.7621378
  energy:            165.6434361

- temperature:      1670.0000000
  free_energy:      -587.1202086
  entropy:           451.3540520
  heat_capacity:      99.7622754
  energy:            166.6410581

- temperature:      1680.0000000
  free_energy:      -591.6367301
  entropy:           451.9496498
  heat_capacity:      99.7624107
  energy:            167.6386816

- temperature:      1690.0000000
  free_energy:      -596.1591898
  entropy:           452.5417137
  heat_capacity:      99.7625435
  energy:            168.6363064

- temperature:      1700.0000000
  free_energy:      -600.6875527
  entropy:           453.1302854
  heat_capacity:      99.7626740
  energy:            169.6339324

- temperature:      1710.0000000
  free_energy:      -605.2217840
  entropy:           453.7154058
  heat_capacity:      99.7628022
  energy:            170.6315598

- temperature:      1720.0000000
  free_energy:      -609.7618495
  entropy:           454.2971151
  heat_capacity:      99.7629282
  energy:            171.6291885

- temperature:      1730.0000000
  free_energy:      -614.3077151
  entropy:           454.8754529
  heat_capacity:      99.7630520
  energy:            172.6268184

- temperature:      1740.0000000
  free_energy:      -618.8593474
  entropy:           455.4504580
  heat_capacity:      99.7631737
  energy:            173.6244495

- temperature:      1750.0000000
  free_energy:      -623.4167133
  entropy:           456.0221686
  heat_capacity:      99.7632933
  energy:            174.6220818

- temperature:      1760.0000000
  free_energy:      -627.9797799
  entropy:           456.5906223
  heat_capacity:      99.7634108
  energy:            175.6197154

- temperature:      1770.0000000
  free_energy:      -632.5485150
  entropy:           457.1558560
  heat_capacity:      99.7635264
  energy:            176.6173501

- temperature:      1780.0000000
  free_energy:      -637.1228864
  entropy:           457.7179058
  heat_capacity:      99.7636401