<?xml version="1.0" encoding="ISO-8859-1"?>
<modeling>
 <generator>
  <i name="program" type="string">vasp</i>
  <i name="version" type="string">4.6.28 </i>
  <i name="subversion" type="string">25Jul05 complex  parallel</i>
  <i name="platform" type="string">LinuxIFC</i>
  <i name="date" type="string">2017 01 11</i>
  <i name="time" type="string">06:09:54</i>
 </generator>
 <incar>
  <i type="string" name="PREC">accurate</i>
  <i type="int" name="IALGO">    38</i>
  <i type="logical" name="ADDGRID"> T  </i>
  <i name="EDIFF">      0.00000001</i>
  <i type="int" name="IBRION">    -1</i>
  <i name="ENCUT">    750.00000000</i>
  <i type="logical" name="LREAL"> F  </i>
  <i type="int" name="ISMEAR">     0</i>
  <i name="SIGMA">      0.01000000</i>
  <i type="logical" name="LWAVE"> F  </i>
  <i type="logical" name="LCHARG"> F  </i>
 </incar>
 <kpoints>
  <generation param="Gamma">
   <v type="int" name="divisions">      12      12      12</v>
   <v name="usershift">      0.00000000      0.00000000      0.00000000</v>
   <v name="genvec1">      0.08333333      0.00000000      0.00000000</v>
   <v name="genvec2">      0.00000000      0.08333333      0.00000000</v>
   <v name="genvec3">      0.00000000      0.00000000      0.08333333</v>
   <v name="shift">      0.00000000      0.00000000      0.00000000</v>
  </generation>
  <varray name="kpointlist" >
   <v>       0.00000000      0.00000000      0.00000000</v>
   <v>       0.08333333      0.00000000      0.00000000</v>
   <v>       0.16666667      0.00000000      0.00000000</v>
   <v>       0.25000000      0.00000000      0.00000000</v>
   <v>       0.33333333      0.00000000      0.00000000</v>
   <v>       0.41666667      0.00000000      0.00000000</v>
   <v>       0.50000000      0.00000000      0.00000000</v>
   <v>       0.00000000      0.08333333      0.00000000</v>
   <v>       0.08333333      0.08333333      0.00000000</v>
   <v>       0.16666667      0.08333333      0.00000000</v>
   <v>       0.25000000      0.08333333      0.00000000</v>
   <v>       0.33333333      0.08333333      0.00000000</v>
   <v>       0.41666667      0.08333333      0.00000000</v>
   <v>       0.50000000      0.08333333      0.00000000</v>
   <v>       0.00000000      0.16666667      0.00000000</v>
   <v>       0.08333333      0.16666667      0.00000000</v>
   <v>       0.16666667      0.16666667      0.00000000</v>
   <v>       0.25000000      0.16666667      0.00000000</v>
   <v>       0.33333333      0.16666667      0.00000000</v>
   <v>       0.41666667      0.16666667      0.00000000</v>
   <v>       0.50000000      0.16666667      0.00000000</v>
   <v>       0.00000000      0.25000000      0.00000000</v>
   <v>       0.08333333      0.25000000      0.00000000</v>
   <v>       0.16666667      0.25000000      0.00000000</v>
   <v>       0.25000000      0.25000000      0.00000000</v>
   <v>       0.33333333      0.25000000      0.00000000</v>
   <v>       0.41666667      0.25000000      0.00000000</v>
   <v>       0.50000000      0.25000000      0.00000000</v>
   <v>       0.00000000      0.33333333      0.00000000</v>
   <v>       0.08333333      0.33333333      0.00000000</v>
   <v>       0.16666667      0.33333333      0.00000000</v>
   <v>       0.25000000      0.33333333      0.00000000</v>
   <v>       0.33333333      0.33333333      0.00000000</v>
   <v>       0.41666667      0.33333333      0.00000000</v>
   <v>       0.50000000      0.33333333      0.00000000</v>
   <v>       0.00000000      0.41666667      0.00000000</v>
   <v>       0.08333333      0.41666667      0.00000000</v>
   <v>       0.16666667      0.41666667      0.00000000</v>
   <v>       0.25000000      0.41666667      0.00000000</v>
   <v>       0.33333333      0.41666667      0.00000000</v>
   <v>       0.41666667      0.41666667      0.00000000</v>
   <v>       0.50000000      0.41666667      0.00000000</v>
   <v>       0.00000000      0.50000000      0.00000000</v>
   <v>       0.08333333      0.50000000      0.00000000</v>
   <v>       0.16666667      0.50000000      0.00000000</v>
   <v>       0.25000000      0.50000000      0.00000000</v>
   <v>       0.33333333      0.50000000      0.00000000</v>
   <v>       0.41666667      0.50000000      0.00000000</v>
   <v>       0.50000000      0.50000000      0.00000000</v>
   <v>       0.00000000      0.08333333      0.08333333</v>
   <v>       0.08333333      0.08333333      0.08333333</v>
   <v>       0.16666667      0.08333333      0.08333333</v>
   <v>       0.25000000      0.08333333      0.08333333</v>
   <v>       0.33333333      0.08333333      0.08333333</v>
   <v>       0.41666667      0.08333333      0.08333333</v>
   <v>       0.50000000      0.08333333      0.08333333</v>
   <v>       0.00000000      0.16666667      0.08333333</v>
   <v>       0.08333333      0.16666667      0.08333333</v>
   <v>       0.16666667      0.16666667      0.08333333</v>
   <v>       0.25000000      0.16666667      0.08333333</v>
   <v>       0.33333333      0.16666667      0.08333333</v>
   <v>       0.41666667      0.16666667      0.08333333</v>
   <v>       0.50000000      0.16666667      0.08333333</v>
   <v>       0.00000000      0.25000000      0.08333333</v>
   <v>       0.08333333      0.25000000      0.08333333</v>
   <v>       0.16666667      0.25000000      0.08333333</v>
   <v>       0.25000000      0.25000000      0.08333333</v>
   <v>       0.33333333      0.25000000      0.08333333</v>
   <v>       0.41666667      0.25000000      0.08333333</v>
   <v>       0.50000000      0.25000000      0.08333333</v>
   <v>       0.00000000      0.33333333      0.08333333</v>
   <v>       0.08333333      0.33333333      0.08333333</v>
   <v>       0.16666667      0.33333333      0.08333333</v>
   <v>       0.25000000      0.33333333      0.08333333</v>
   <v>       0.33333333      0.33333333      0.08333333</v>
   <v>       0.41666667      0.33333333      0.08333333</v>
   <v>       0.50000000      0.33333333      0.08333333</v>
   <v>       0.00000000      0.41666667      0.08333333</v>
   <v>       0.08333333      0.41666667      0.08333333</v>
   <v>       0.16666667      0.41666667      0.08333333</v>
   <v>       0.25000000      0.41666667      0.08333333</v>
   <v>       0.33333333      0.41666667      0.08333333</v>
   <v>       0.41666667      0.41666667      0.08333333</v>
   <v>       0.50000000      0.41666667      0.08333333</v>
   <v>       0.00000000      0.50000000      0.08333333</v>
   <v>       0.08333333      0.50000000      0.08333333</v>
   <v>       0.16666667      0.50000000      0.08333333</v>
   <v>       0.25000000      0.50000000      0.08333333</v>
   <v>       0.33333333      0.50000000      0.08333333</v>
   <v>       0.41666667      0.50000000      0.08333333</v>
   <v>       0.50000000      0.50000000      0.08333333</v>
   <v>       0.00000000      0.16666667      0.16666667</v>
   <v>       0.08333333      0.16666667      0.16666667</v>
   <v>       0.16666667      0.16666667      0.16666667</v>
   <v>       0.25000000      0.16666667      0.16666667</v>
   <v>       0.33333333      0.16666667      0.16666667</v>
   <v>       0.41666667      0.16666667      0.16666667</v>
   <v>       0.50000000      0.16666667      0.16666667</v>
   <v>       0.00000000      0.25000000      0.16666667</v>
   <v>       0.08333333      0.25000000      0.16666667</v>
   <v>       0.16666667      0.25000000      0.16666667</v>
   <v>       0.25000000      0.25000000      0.16666667</v>
   <v>       0.33333333      0.25000000      0.16666667</v>
   <v>       0.41666667      0.25000000      0.16666667</v>
   <v>       0.50000000      0.25000000      0.16666667</v>
   <v>       0.00000000      0.33333333      0.16666667</v>
   <v>       0.08333333      0.33333333      0.16666667</v>
   <v>       0.16666667      0.33333333      0.16666667</v>
   <v>       0.25000000      0.33333333      0.16666667</v>
   <v>       0.33333333      0.33333333      0.16666667</v>
   <v>       0.41666667      0.33333333      0.16666667</v>
   <v>       0.50000000      0.33333333      0.16666667</v>
   <v>       0.00000000      0.41666667      0.16666667</v>
   <v>       0.08333333      0.41666667      0.16666667</v>
   <v>       0.16666667      0.41666667      0.16666667</v>
   <v>       0.25000000      0.41666667      0.16666667</v>
   <v>       0.33333333      0.41666667      0.16666667</v>
   <v>       0.41666667      0.41666667      0.16666667</v>
   <v>       0.50000000      0.41666667      0.16666667</v>
   <v>       0.00000000      0.50000000      0.16666667</v>
   <v>       0.08333333      0.50000000      0.16666667</v>
   <v>       0.16666667      0.50000000      0.16666667</v>
   <v>       0.25000000      0.50000000      0.16666667</v>
   <v>       0.33333333      0.50000000      0.16666667</v>
   <v>       0.41666667      0.50000000      0.16666667</v>
   <v>       0.50000000      0.50000000      0.16666667</v>
   <v>       0.00000000      0.25000000      0.25000000</v>
   <v>       0.08333333      0.25000000      0.25000000</v>
   <v>       0.16666667      0.25000000      0.25000000</v>
   <v>       0.25000000      0.25000000      0.25000000</v>
   <v>       0.33333333      0.25000000      0.25000000</v>
   <v>       0.41666667      0.25000000      0.25000000</v>
   <v>       0.50000000      0.25000000      0.25000000</v>
   <v>       0.00000000      0.33333333      0.25000000</v>
   <v>       0.08333333      0.33333333      0.25000000</v>
   <v>       0.16666667      0.33333333      0.25000000</v>
   <v>       0.25000000      0.33333333      0.25000000</v>
   <v>       0.33333333      0.33333333      0.25000000</v>
   <v>       0.41666667      0.33333333      0.25000000</v>
   <v>       0.50000000      0.33333333      0.25000000</v>
   <v>       0.00000000      0.41666667      0.25000000</v>
   <v>       0.08333333      0.41666667      0.25000000</v>
   <v>       0.16666667      0.41666667      0.25000000</v>
   <v>       0.25000000      0.41666667      0.25000000</v>
   <v>       0.33333333      0.41666667      0.25000000</v>
   <v>       0.41666667      0.41666667      0.25000000</v>
   <v>       0.50000000      0.41666667      0.25000000</v>
   <v>       0.00000000      0.50000000      0.25000000</v>
   <v>       0.08333333      0.50000000      0.25000000</v>
   <v>       0.16666667      0.50000000      0.25000000</v>
   <v>       0.25000000      0.50000000      0.25000000</v>
   <v>       0.33333333      0.50000000      0.25000000</v>
   <v>       0.41666667      0.50000000      0.25000000</v>
   <v>       0.50000000      0.50000000      0.25000000</v>
   <v>       0.00000000      0.33333333      0.33333333</v>
   <v>       0.08333333      0.33333333      0.33333333</v>
   <v>       0.16666667      0.33333333      0.33333333</v>
   <v>       0.25000000      0.33333333      0.33333333</v>
   <v>       0.33333333      0.33333333      0.33333333</v>
   <v>       0.41666667      0.33333333      0.33333333</v>
   <v>       0.50000000      0.33333333      0.33333333</v>
   <v>       0.00000000      0.41666667      0.33333333</v>
   <v>       0.08333333      0.41666667      0.33333333</v>
   <v>       0.16666667      0.41666667      0.33333333</v>
   <v>       0.25000000      0.41666667      0.33333333</v>
   <v>       0.33333333      0.41666667      0.33333333</v>
   <v>       0.41666667      0.41666667      0.33333333</v>
   <v>       0.50000000      0.41666667      0.33333333</v>
   <v>       0.00000000      0.50000000      0.33333333</v>
   <v>       0.08333333      0.50000000      0.33333333</v>
   <v>       0.16666667      0.50000000      0.33333333</v>
   <v>       0.25000000      0.50000000      0.33333333</v>
   <v>       0.33333333      0.50000000      0.33333333</v>
   <v>       0.41666667      0.50000000      0.33333333</v>
   <v>       0.50000000      0.50000000      0.33333333</v>
   <v>       0.00000000      0.41666667      0.41666667</v>
   <v>       0.08333333      0.41666667      0.41666667</v>
   <v>       0.16666667      0.41666667      0.41666667</v>
   <v>       0.25000000      0.41666667      0.41666667</v>
   <v>       0.33333333      0.41666667      0.41666667</v>
   <v>       0.41666667      0.41666667      0.41666667</v>
   <v>       0.50000000      0.41666667      0.41666667</v>
   <v>       0.00000000      0.50000000      0.41666667</v>
   <v>       0.08333333      0.50000000      0.41666667</v>
   <v>       0.16666667      0.50000000      0.41666667</v>
   <v>       0.25000000      0.50000000      0.41666667</v>
   <v>       0.33333333      0.50000000      0.41666667</v>
   <v>       0.41666667      0.50000000      0.41666667</v>
   <v>       0.50000000      0.50000000      0.41666667</v>
   <v>       0.00000000      0.50000000      0.50000000</v>
   <v>       0.08333333      0.50000000      0.50000000</v>
   <v>       0.16666667      0.50000000      0.50000000</v>
   <v>       0.25000000      0.50000000      0.50000000</v>
   <v>       0.33333333      0.50000000      0.50000000</v>
   <v>       0.41666667      0.50000000      0.50000000</v>
   <v>       0.50000000      0.50000000      0.50000000</v>
  </varray>
  <varray name="weights" >
   <v>       0.00057870</v>
   <v>       0.00115741</v>
   <v>       0.00115741</v>
   <v>       0.00115741</v>
   <v>       0.00115741</v>
   <v>       0.00115741</v>
   <v>       0.00057870</v>
   <v>       0.00231481</v>
   <v>       0.00462963</v>
   <v>       0.00462963</v>
   <v>       0.00462963</v>
   <v>       0.00462963</v>
   <v>       0.00462963</v>
   <v>       0.00231481</v>
   <v>       0.00231481</v>
   <v>       0.00462963</v>
   <v>       0.00462963</v>
   <v>       0.00462963</v>
   <v>       0.00462963</v>
   <v>       0.00462963</v>
   <v>       0.00231481</v>
   <v>       0.00231481</v>
   <v>       0.00462963</v>
   <v>       0.00462963</v>
   <v>       0.00462963</v>
   <v>       0.00462963</v>
   <v>       0.00462963</v>
   <v>       0.00231481</v>
   <v>       0.00231481</v>
   <v>       0.00462963</v>
   <v>       0.00462963</v>
   <v>       0.00462963</v>
   <v>       0.00462963</v>
   <v>       0.00462963</v>
   <v>       0.00231481</v>
   <v>       0.00231481</v>
   <v>       0.00462963</v>
   <v>       0.00462963</v>
   <v>       0.00462963</v>
   <v>       0.00462963</v>
   <v>       0.00462963</v>
   <v>       0.00231481</v>
   <v>       0.00115741</v>
   <v>       0.00231481</v>
   <v>       0.00231481</v>
   <v>       0.00231481</v>
   <v>       0.00231481</v>
   <v>       0.00231481</v>
   <v>       0.00115741</v>
   <v>       0.00231481</v>
   <v>       0.00462963</v>
   <v>       0.00462963</v>
   <v>       0.00462963</v>
   <v>       0.00462963</v>
   <v>       0.00462963</v>
   <v>       0.00231481</v>
   <v>       0.00462963</v>
   <v>       0.00925926</v>
   <v>       0.00925926</v>
   <v>       0.00925926</v>
   <v>       0.00925926</v>
   <v>       0.00925926</v>
   <v>       0.00462963</v>
   <v>       0.00462963</v>
   <v>       0.00925926</v>
   <v>       0.00925926</v>
   <v>       0.00925926</v>
   <v>       0.00925926</v>
   <v>       0.00925926</v>
   <v>       0.00462963</v>
   <v>       0.00462963</v>
   <v>       0.00925926</v>
   <v>       0.00925926</v>
   <v>       0.00925926</v>
   <v>       0.00925926</v>
   <v>       0.00925926</v>
   <v>       0.00462963</v>
   <v>       0.00462963</v>
   <v>       0.00925926</v>
   <v>       0.00925926</v>
   <v>       0.00925926</v>
   <v>       0.00925926</v>
   <v>       0.00925926</v>
   <v>       0.00462963</v>
   <v>       0.00231481</v>
   <v>       0.00462963</v>
   <v>       0.00462963</v>
   <v>       0.00462963</v>
   <v>       0.00462963</v>
   <v>       0.00462963</v>
   <v>       0.00231481</v>
   <v>       0.00231481</v>
   <v>       0.00462963</v>
   <v>       0.00462963</v>
   <v>       0.00462963</v>
   <v>       0.00462963</v>
   <v>       0.00462963</v>
   <v>       0.00231481</v>
   <v>       0.00462963</v>
   <v>       0.00925926</v>
   <v>       0.00925926</v>
   <v>       0.00925926</v>
   <v>       0.00925926</v>
   <v>       0.00925926</v>
   <v>       0.00462963</v>
   <v>       0.00462963</v>
   <v>       0.00925926</v>
   <v>       0.00925926</v>
   <v>       0.00925926</v>
   <v>       0.00925926</v>
   <v>       0.00925926</v>
   <v>       0.00462963</v>
   <v>       0.00462963</v>
   <v>       0.00925926</v>
   <v>       0.00925926</v>
   <v>       0.00925926</v>
   <v>       0.00925926</v>
   <v>       0.00925926</v>
   <v>       0.00462963</v>
   <v>       0.00231481</v>
   <v>       0.00462963</v>
   <v>       0.00462963</v>
   <v>       0.00462963</v>
   <v>       0.00462963</v>
   <v>       0.00462963</v>
   <v>       0.00231481</v>
   <v>       0.00231481</v>
   <v>       0.00462963</v>
   <v>       0.00462963</v>
   <v>       0.00462963</v>
   <v>       0.00462963</v>
   <v>       0.00462963</v>
   <v>       0.00231481</v>
   <v>       0.00462963</v>
   <v>       0.00925926</v>
   <v>       0.00925926</v>
   <v>       0.00925926</v>
   <v>       0.00925926</v>
   <v>       0.00925926</v>
   <v>       0.00462963</v>
   <v>       0.00462963</v>
   <v>       0.00925926</v>
   <v>       0.00925926</v>
   <v>       0.00925926</v>
   <v>       0.00925926</v>
   <v>       0.00925926</v>
   <v>       0.00462963</v>
   <v>       0.00231481</v>
   <v>       0.00462963</v>
   <v>       0.00462963</v>
   <v>       0.00462963</v>
   <v>       0.00462963</v>
   <v>       0.00462963</v>
   <v>       0.00231481</v>
   <v>       0.00231481</v>
   <v>       0.00462963</v>
   <v>       0.00462963</v>
   <v>       0.00462963</v>
   <v>       0.00462963</v>
   <v>       0.00462963</v>
   <v>       0.00231481</v>
   <v>       0.00462963</v>
   <v>       0.00925926</v>
   <v>       0.00925926</v>
   <v>       0.00925926</v>
   <v>       0.00925926</v>
   <v>       0.00925926</v>
   <v>       0.00462963</v>
   <v>       0.00231481</v>
   <v>       0.00462963</v>
   <v>       0.00462963</v>
   <v>       0.00462963</v>
   <v>       0.00462963</v>
   <v>       0.00462963</v>
   <v>       0.00231481</v>
   <v>       0.00231481</v>
   <v>       0.00462963</v>
   <v>       0.00462963</v>
   <v>       0.00462963</v>
   <v>       0.00462963</v>
   <v>       0.00462963</v>
   <v>       0.00231481</v>
   <v>       0.00231481</v>
   <v>       0.00462963</v>
   <v>       0.00462963</v>
   <v>       0.00462963</v>
   <v>       0.00462963</v>
   <v>       0.00462963</v>
   <v>       0.00231481</v>
   <v>       0.00057870</v>
   <v>       0.00115741</v>
   <v>       0.00115741</v>
   <v>       0.00115741</v>
   <v>       0.00115741</v>
   <v>       0.00115741</v>
   <v>       0.00057870</v>
  </varray>
 </kpoints>
 <parameters>
  <separator name="general" >
   <i type="string" name="SYSTEM">unknown system</i>
   <i type="logical" name="LCOMPAT"> F  </i>
  </separator>
  <separator name="electronic" >
   <i type="string" name="PREC">accura</i>
   <i name="ENMAX">    750.00000000</i>
   <i name="ENAUG">    356.67000000</i>
   <i name="EDIFF">      0.00000001</i>
   <i type="int" name="IALGO">    38</i>
   <i type="int" name="IWAVPR">    10</i>
   <i type="int" name="NBANDS">   211</i>
   <i name="NELECT">    352.00000000</i>
   <separator name="electronic smearing" >
    <i type="int" name="ISMEAR">     0</i>
    <i name="SIGMA">      0.01000000</i>
   </separator>
   <separator name="electronic projectors" >
    <i type="logical" name="LREAL"> F  </i>
    <v name="ROPT">      0.00000000</v>
    <i type="int" name="LMAXPAW">  -100</i>
    <i type="int" name="LMAXMIX">     2</i>
   </separator>
   <separator name="electronic startup" >
    <i type="int" name="ISTART">     0</i>
    <i type="int" name="ICHARG">     2</i>
    <i type="int" name="INIWAV">     1</i>
   </separator>
   <separator name="electronic spin" >
    <i type="int" name="ISPIN">     1</i>
    <i type="logical" name="LNONCOLLINEAR"> F  </i>
    <v name="MAGMOM">      1.00000000      1.00000000      1.00000000      1.00000000      1.00000000      1.00000000      1.00000000      1.00000000      1.00000000      1.00000000      1.00000000      1.00000000      1.00000000      1.00000000      1.00000000      1.00000000      1.00000000      1.00000000      1.00000000      1.00000000
      1.00000000      1.00000000      1.00000000      1.00000000      1.00000000      1.00000000      1.00000000      1.00000000      1.00000000      1.00000000      1.00000000      1.00000000</v>
    <i name="NUPDOWN">     -1.00000000</i>
    <i type="logical" name="LSORBIT"> F  </i>
    <v name="SAXIS">      0.00000000      0.00000000      1.00000000</v>
    <i type="logical" name="LSPIRAL"> F  </i>
    <v name="QSPIRAL">      0.00000000      0.00000000      0.00000000</v>
    <i type="logical" name="LZEROZ"> F  </i>
   </separator>
   <separator name="electronic exchange-correlation" >
    <i type="string" name="GGA">--</i>
    <i type="int" name="VOSKOWN">     0</i>
    <i type="logical" name="LASPH"> F  </i>
    <i type="logical" name="LMETAGGA"> F  </i>
    <i type="string" name="GGA2">--</i>
   </separator>
   <separator name="electronic convergence" >
    <i type="int" name="NELM">    60</i>
    <i type="int" name="NELMDL">    -5</i>
    <i type="int" name="NELMIN">     2</i>
    <i name="ENINI">    750.00000000</i>
    <separator name="electronic convergence detail" >
     <i type="logical" name="LDIAG"> T  </i>
     <i name="WEIMIN">      0.00000000</i>
     <i name="EBREAK">      0.00000000</i>
     <i name="DEPER">      0.30000000</i>
     <i type="int" name="NRMM">     4</i>
     <i name="TIME">      0.10000000</i>
    </separator>
   </separator>
   <separator name="electronic mixer" >
    <i name="AMIX">      0.40000000</i>
    <i name="BMIX">      1.00000000</i>
    <i name="AMIN">      0.10000000</i>
    <i name="AMIX_MAG">      1.60000000</i>
    <i name="BMIX_MAG">      1.00000000</i>
    <separator name="electronic mixer details" >
     <i type="int" name="IMIX">     4</i>
     <i type="int" name="MAXMIX">   -45</i>
     <i name="WC">    100.00000000</i>
     <i type="int" name="INIMIX">     1</i>
     <i type="int" name="MIXPRE">     1</i>
     <i type="int" name="MREMOVE">     5</i>
    </separator>
   </separator>
   <separator name="electronic dipolcorrection" >
    <i type="int" name="IDIPOL">     0</i>
    <i type="logical" name="LDIPOL"> F  </i>
    <v name="DIPOL">   -100.00000000</v>
    <i name="EFIELD">      0.00000000</i>
   </separator>
  </separator>
  <separator name="grids" >
   <i type="int" name="NGX">    80</i>
   <i type="int" name="NGY">    80</i>
   <i type="int" name="NGZ">    80</i>
   <i type="int" name="NGXF">   160</i>
   <i type="int" name="NGYF">   160</i>
   <i type="int" name="NGZF">   160</i>
   <i type="logical" name="ADDGRID"> T  </i>
  </separator>
  <separator name="ionic" >
   <i type="int" name="NSW">     0</i>
   <i type="int" name="IBRION">    -1</i>
   <i type="int" name="ISIF">     2</i>
   <i name="PSTRESS">      0.00000000</i>
   <i name="EDIFFG">      0.00000010</i>
   <i type="int" name="NFREE">     0</i>
   <i name="POTIM">      0.50000000</i>
   <i name="SMASS">     -3.00000000</i>
  </separator>
  <separator name="ionic md" >
   <i name="TEBEG">      0.00010000</i>
   <i name="TEEND">      0.00010000</i>
   <i type="int" name="NBLOCK">     1</i>
   <i type="int" name="KBLOCK">     1</i>
   <i type="int" name="NPACO">   256</i>
   <i name="APACO">     16.00000000</i>
  </separator>
  <separator name="symmetry" >
   <i type="int" name="ISYM">     2</i>
   <i name="SYMPREC">      0.00001000</i>
  </separator>
  <separator name="dos" >
   <i type="logical" name="LORBIT"> F  </i>
   <v name="RWIGS">     -1.00000000</v>
   <i type="int" name="NEDOS">   301</i>
   <i name="EMIN">     10.00000000</i>
   <i name="EMAX">    -10.00000000</i>
  </separator>
  <separator name="writing" >
   <i type="int" name="NWRITE">     2</i>
   <i type="logical" name="LWAVE"> F  </i>
   <i type="logical" name="LCHARG"> F  </i>
   <i type="logical" name="LPARD"> F  </i>
   <i type="logical" name="LVTOT"> F  </i>
   <i type="logical" name="LELF"> F  </i>
   <i type="logical" name="LOPTICS"> F  </i>
   <i name="STM">      0.00000000</i>
  </separator>
  <separator name="performance" >
   <i type="int" name="NPAR">     4</i>
   <i type="int" name="NSIM">     4</i>
   <i type="int" name="NBLK">   256</i>
   <i type="logical" name="LPLANE"> T  </i>
   <i type="logical" name="LCRITICAL_MEM"> F  </i>
   <i type="logical" name="LSCALAPACK"> F  </i>
   <i type="logical" name="LSCALU"> F  </i>
   <i type="logical" name="LASYNC"> F  </i>
  </separator>
  <separator name="miscellaneous" >
   <i type="int" name="IDIOT">     3</i>
   <i type="logical" name="LMUSIC"> F  </i>
   <v name="POMASS">    196.96600000</v>
   <i type="logical" name="LCORR"> T  </i>
  </separator>
  <i type="logical" name="LREAL_COMPAT"> F  </i>
  <i type="logical" name="GGA_COMPAT"> T  </i>
  <i type="logical" name="LBERRY"> F  </i>
  <i type="int" name="ICORELEVEL">     0</i>
  <i type="logical" name="LDAU"> F  </i>
  <i type="int" name="I_CONSTRAINED_M">     0</i>
 </parameters>
 <atominfo>
  <atoms>      32</atoms>
  <types>       1</types>
  <array name="atoms" >
   <dimension dim="1">ion</dimension>
   <field type="string">element</field>
   <field type="int">atomtype</field>
   <set>
    <rc><c>Au</c><c>   1</c></rc>
    <rc><c>Au</c><c>   1</c></rc>
    <rc><c>Au</c><c>   1</c></rc>
    <rc><c>Au</c><c>   1</c></rc>
    <rc><c>Au</c><c>   1</c></rc>
    <rc><c>Au</c><c>   1</c></rc>
    <rc><c>Au</c><c>   1</c></rc>
    <rc><c>Au</c><c>   1</c></rc>
    <rc><c>Au</c><c>   1</c></rc>
    <rc><c>Au</c><c>   1</c></rc>
    <rc><c>Au</c><c>   1</c></rc>
    <rc><c>Au</c><c>   1</c></rc>
    <rc><c>Au</c><c>   1</c></rc>
    <rc><c>Au</c><c>   1</c></rc>
    <rc><c>Au</c><c>   1</c></rc>
    <rc><c>Au</c><c>   1</c></rc>
    <rc><c>Au</c><c>   1</c></rc>
    <rc><c>Au</c><c>   1</c></rc>
    <rc><c>Au</c><c>   1</c></rc>
    <rc><c>Au</c><c>   1</c></rc>
    <rc><c>Au</c><c>   1</c></rc>
    <rc><c>Au</c><c>   1</c></rc>
    <rc><c>Au</c><c>   1</c></rc>
    <rc><c>Au</c><c>   1</c></rc>
    <rc><c>Au</c><c>   1</c></rc>
    <rc><c>Au</c><c>   1</c></rc>
    <rc><c>Au</c><c>   1</c></rc>
    <rc><c>Au</c><c>   1</c></rc>
    <rc><c>Au</c><c>   1</c></rc>
    <rc><c>Au</c><c>   1</c></rc>
    <rc><c>Au</c><c>   1</c></rc>
    <rc><c>Au</c><c>   1</c></rc>
   </set>
  </array>
  <array name="atomtypes" >
   <dimension dim="1">type</dimension>
   <field type="int">atomspertype</field>
   <field type="string">element</field>
   <field>mass</field>
   <field>valence</field>
   <field type="string">pseudopotential</field>
   <set>
    <rc><c>  32</c><c>Au</c><c>    196.96600000</c><c>     11.00000000</c><c> PAW_PBE Au 06Sep2000                   </c></rc>
   </set>
  </array>
 </atominfo>
 <structure name="initialpos" >
  <crystal>
   <varray name="basis" >
    <v>       8.76298899      0.00000000      0.00000000</v>
    <v>       0.00000000      8.76298899      0.00000000</v>
    <v>       0.00000000      0.00000000      8.76298899</v>
   </varray>
   <i name="volume">    672.90971569</i>
   <varray name="rec_basis" >
    <v>       0.11411631      0.00000000      0.00000000</v>
    <v>       0.00000000      0.11411631      0.00000000</v>
    <v>       0.00000000      0.00000000      0.11411631</v>
   </varray>
  </crystal>
  <varray name="positions" >
   <v>       0.00114116      0.00000000      0.00000000</v>
   <v>       0.50000000      0.00000000      0.00000000</v>
   <v>       0.00000000      0.50000000      0.00000000</v>
   <v>       0.50000000      0.50000000      0.00000000</v>
   <v>       0.00000000      0.00000000      0.50000000</v>
   <v>       0.50000000      0.00000000      0.50000000</v>
   <v>       0.00000000      0.50000000      0.50000000</v>
   <v>       0.50000000      0.50000000      0.50000000</v>
   <v>       0.25000000      0.25000000      0.00000000</v>
   <v>       0.75000000      0.25000000      0.00000000</v>
   <v>       0.25000000      0.75000000      0.00000000</v>
   <v>       0.75000000      0.75000000      0.00000000</v>
   <v>       0.25000000      0.25000000      0.50000000</v>
   <v>       0.75000000      0.25000000      0.50000000</v>
   <v>       0.25000000      0.75000000      0.50000000</v>
   <v>       0.75000000      0.75000000      0.50000000</v>
   <v>       0.25000000      0.00000000      0.25000000</v>
   <v>       0.75000000      0.00000000      0.25000000</v>
   <v>       0.25000000      0.50000000      0.25000000</v>
   <v>       0.75000000      0.50000000      0.25000000</v>
   <v>       0.25000000      0.00000000      0.75000000</v>
   <v>       0.75000000      0.00000000      0.75000000</v>
   <v>       0.25000000      0.50000000      0.75000000</v>
   <v>       0.75000000      0.50000000      0.75000000</v>
   <v>       0.00000000      0.25000000      0.25000000</v>
   <v>       0.50000000      0.25000000      0.25000000</v>
   <v>       0.00000000      0.75000000      0.25000000</v>
   <v>       0.50000000      0.75000000      0.25000000</v>
   <v>       0.00000000      0.25000000      0.75000000</v>
   <v>       0.50000000      0.25000000      0.75000000</v>
   <v>       0.00000000      0.75000000      0.75000000</v>
   <v>       0.50000000      0.75000000      0.75000000</v>
  </varray>
 </structure>
 <calculation>
  <scstep>
   <time name="dav"> 2008.25 2251.71</time>
   <time name="total"> 2037.19 2318.39</time>
   <energy>
    <i name="alphaZ">   2849.96344217</i>
    <i name="ewald"> -29171.93464031</i>
    <i name="hartreedc">  -4863.06058569</i>
    <i name="XCdc">    470.60675576</i>
    <i name="pawpsdc">  23920.39735419</i>
    <i name="pawaedc"> -23172.13309131</i>
    <i name="eentropy">     -0.00068970</i>
    <i name="bandstr">   4798.71616299</i>
    <i name="atom">  29633.78979189</i>
    <i name="e_fr_energy">   4466.34449999</i>
    <i name="e_wo_entrp">   4466.34518969</i>
    <i name="e_0_energy">   4466.34484484</i>
   </energy>
  </scstep>
  <scstep>
   <time name="dav"> 2231.77 2231.39</time>
   <time name="total"> 2232.00 2231.62</time>
   <energy>
    <i name="e_fr_energy">    172.66688664</i>
    <i name="e_wo_entrp">    172.66738439</i>
    <i name="e_0_energy">    172.66713551</i>
   </energy>
  </scstep>
  <scstep>
   <time name="dav"> 3027.73 3839.03</time>
   <time name="total"> 3031.48 3843.48</time>
   <energy>
    <i name="e_fr_energy">    -96.39711052</i>
    <i name="e_wo_entrp">    -96.39644431</i>
    <i name="e_0_energy">    -96.39677741</i>
   </energy>
  </scstep>
  <scstep>
   <time name="dav"> 9273.1717087.69</time>
   <time name="total"> 9274.0117089.94</time>
   <energy>
    <i name="e_fr_energy">   -107.14322004</i>
    <i name="e_wo_entrp">   -107.14221314</i>
    <i name="e_0_energy">   -107.14271659</i>
   </energy>
  </scstep>
  <scstep>
   <time name="dav"> 3442.51 3506.90</time>
   <time name="total"> 3579.86 3682.42</time>
   <energy>
    <i name="e_fr_energy">   -107.37488778</i>
    <i name="e_wo_entrp">   -107.37386796</i>
    <i name="e_0_energy">   -107.37437787</i>
   </energy>
  </scstep>
  <scstep>
   <time name="dav"> 3187.51 3993.46</time>
   <time name="total"> 3321.27 7590.27</time>
   <energy>
    <i name="e_fr_energy">   -100.62191638</i>
    <i name="e_wo_entrp">   -100.62117665</i>
    <i name="e_0_energy">   -100.62154651</i>
   </energy>
  </scstep>
  <scstep>
   <time name="dav">12798.7826524.19</time>
   <time name="total">13044.4727582.28</time>
   <energy>
    <i name="e_fr_energy">   -100.40558912</i>
    <i name="e_wo_entrp">   -100.40468779</i>
    <i name="e_0_energy">   -100.40513845</i>
   </energy>
  </scstep>
  <scstep>
   <time name="dav"> 3578.38 5495.66</time>
   <time name="total"> 3838.9315746.59</time>
   <energy>
    <i name="e_fr_energy">   -100.36071920</i>
    <i name="e_wo_entrp">   -100.35982418</i>
    <i name="e_0_energy">   -100.36027169</i>
   </energy>
  </scstep>
  <scstep>
   <time name="dav">15900.2732189.18</time>
   <time name="total">16113.8438957.68</time>
   <energy>
    <i name="e_fr_energy">   -100.36103022</i>
    <i name="e_wo_entrp">   -100.36014563</i>
    <i name="e_0_energy">   -100.36058792</i>
   </energy>
  </scstep>
  <scstep>
   <time name="dav">10955.7825124.29</time>
   <time name="total">11144.0725541.06</time>
   <energy>
    <i name="e_fr_energy">   -100.36110786</i>
    <i name="e_wo_entrp">   -100.36022022</i>
    <i name="e_0_energy">   -100.36066404</i>
   </energy>
  </scstep>
  <scstep>
   <time name="dav"> 3919.84 3918.68</time>
   <time name="total"> 4088.12 4086.96</time>
   <energy>
    <i name="e_fr_energy">   -100.36111654</i>
    <i name="e_wo_entrp">   -100.36022842</i>
    <i name="e_0_energy">   -100.36067248</i>
   </energy>
  </scstep>
  <scstep>
   <time name="dav"> 3658.61 3658.13</time>
   <time name="total"> 3805.75 3805.22</time>
   <energy>
    <i name="e_fr_energy">   -100.36111893</i>
    <i name="e_wo_entrp">   -100.36023072</i>
    <i name="e_0_energy">   -100.36067482</i>
   </energy>
  </scstep>
  <scstep>
   <time name="dav"> 3565.35 3591.10</time>
   <time name="total"> 3679.12 3733.76</time>
   <energy>
    <i name="e_fr_energy">   -100.36111776</i>
    <i name="e_wo_entrp">   -100.36022953</i>
    <i name="e_0_energy">   -100.36067364</i>
   </energy>
  </scstep>
  <scstep>
   <time name="dav"> 1348.20 1348.61</time>
   <time name="total"> 1453.56 1453.94</time>
   <energy>
    <i name="e_fr_energy">   -100.36111737</i>
    <i name="e_wo_entrp">   -100.36022914</i>
    <i name="e_0_energy">   -100.36067326</i>
   </energy>
  </scstep>
  <scstep>
   <time name="dav"> 1353.86 1354.29</time>
   <time name="total"> 1464.41 1464.83</time>
   <energy>
    <i name="e_fr_energy">   -100.36111740</i>
    <i name="e_wo_entrp">   -100.36022917</i>
    <i name="e_0_energy">   -100.36067328</i>
   </energy>
  </scstep>
  <scstep>
   <time name="dav"> 1175.71 1175.66</time>
   <time name="total"> 1177.72 1177.66</time>
   <energy>
    <i name="alphaZ">   2849.96344217</i>
    <i name="ewald"> -29171.93464031</i>
    <i name="hartreedc">  -4533.01379552</i>
    <i name="XCdc">    455.46972998</i>
    <i name="pawpsdc">  23518.96697590</i>
    <i name="pawaedc"> -22826.13208739</i>
    <i name="eentropy">     -0.00088823</i>
    <i name="bandstr">    -27.46964589</i>
    <i name="atom">  29633.78979189</i>
    <i name="e_fr_energy">   -100.36111739</i>
    <i name="e_wo_entrp">   -100.36022916</i>
    <i name="e_0_energy">   -100.36067327</i>
   </energy>
  </scstep>
  <structure>
   <crystal>
    <varray name="basis" >
     <v>       8.76298899      0.00000000      0.00000000</v>
     <v>       0.00000000      8.76298899      0.00000000</v>
     <v>       0.00000000      0.00000000      8.76298899</v>
    </varray>
    <i name="volume">    672.90971569</i>
    <varray name="rec_basis" >
     <v>       0.11411631      0.00000000      0.00000000</v>
     <v>       0.00000000      0.11411631      0.00000000</v>
     <v>       0.00000000      0.00000000      0.11411631</v>
    </varray>
   </crystal>
   <varray name="positions" >
    <v>       0.00114116      0.00000000      0.00000000</v>
    <v>       0.50000000      0.00000000      0.00000000</v>
    <v>       0.00000000      0.50000000      0.00000000</v>
    <v>       0.50000000      0.50000000      0.00000000</v>
    <v>       0.00000000      0.00000000      0.50000000</v>
    <v>       0.50000000      0.00000000      0.50000000</v>
    <v>       0.00000000      0.50000000      0.50000000</v>
    <v>       0.50000000      0.50000000      0.50000000</v>
    <v>       0.25000000      0.25000000      0.00000000</v>
    <v>       0.75000000      0.25000000      0.00000000</v>
    <v>       0.25000000      0.75000000      0.00000000</v>
    <v>       0.75000000      0.75000000      0.00000000</v>
    <v>       0.25000000      0.25000000      0.50000000</v>
    <v>       0.75000000      0.25000000      0.50000000</v>
    <v>       0.25000000      0.75000000      0.50000000</v>
    <v>       0.75000000      0.75000000      0.50000000</v>
    <v>       0.25000000      0.00000000      0.25000000</v>
    <v>       0.75000000      0.00000000      0.25000000</v>
    <v>       0.25000000      0.50000000      0.25000000</v>
    <v>       0.75000000      0.50000000      0.25000000</v>
    <v>       0.25000000      0.00000000      0.75000000</v>
    <v>       0.75000000      0.00000000      0.75000000</v>
    <v>       0.25000000      0.50000000      0.75000000</v>
    <v>       0.75000000      0.50000000      0.75000000</v>
    <v>       0.00000000      0.25000000      0.25000000</v>
    <v>       0.50000000      0.25000000      0.25000000</v>
    <v>       0.00000000      0.75000000      0.25000000</v>
    <v>       0.50000000      0.75000000      0.25000000</v>
    <v>       0.00000000      0.25000000      0.75000000</v>
    <v>       0.50000000      0.25000000      0.75000000</v>
    <v>       0.00000000      0.75000000      0.75000000</v>
    <v>       0.50000000      0.75000000      0.75000000</v>
   </varray>
  </structure>
  <varray name="forces" >
   <v>      -0.01337457      0.00000000      0.00000000</v>
   <v>       0.00345928     -0.00000000     -0.00000000</v>
   <v>      -0.00048874      0.00000000     -0.00000000</v>
   <v>      -0.00182160      0.00000000     -0.00000000</v>
   <v>      -0.00048874      0.00000000     -0.00000000</v>
   <v>      -0.00182160     -0.00000000     -0.00000000</v>
   <v>       0.00026829     -0.00000000     -0.00000000</v>
   <v>      -0.00013397      0.00000000     -0.00000000</v>
   <v>       0.00218576      0.00307928      0.00000000</v>
   <v>       0.00205287     -0.00290413     -0.00000000</v>
   <v>       0.00218576     -0.00307928     -0.00000000</v>
   <v>       0.00205287      0.00290413     -0.00000000</v>
   <v>       0.00024210      0.00001325     -0.00000000</v>
   <v>       0.00024142     -0.00001182      0.00000000</v>
   <v>       0.00024210     -0.00001325     -0.00000000</v>
   <v>       0.00024142      0.00001182     -0.00000000</v>
   <v>       0.00218576     -0.00000000      0.00307928</v>
   <v>       0.00205287     -0.00000000     -0.00290413</v>
   <v>       0.00024210     -0.00000000      0.00001325</v>
   <v>       0.00024142      0.00000000     -0.00001182</v>
   <v>       0.00218576      0.00000000     -0.00307928</v>
   <v>       0.00205287      0.00000000      0.00290413</v>
   <v>       0.00024210     -0.00000000     -0.00001325</v>
   <v>       0.00024142      0.00000000      0.00001182</v>
   <v>      -0.00179729      0.00000357      0.00000357</v>
   <v>       0.00067555      0.00000257      0.00000257</v>
   <v>      -0.00179729     -0.00000357      0.00000357</v>
   <v>       0.00067555     -0.00000257      0.00000257</v>
   <v>      -0.00179729      0.00000357     -0.00000357</v>
   <v>       0.00067555      0.00000257     -0.00000257</v>
   <v>      -0.00179729     -0.00000357     -0.00000357</v>
   <v>       0.00067555     -0.00000257     -0.00000257</v>
  </varray>
  <varray name="stress" >
   <v>    -127.68524925      0.00000000      0.00000000</v>
   <v>      -0.00000000   -127.68594217      0.00000000</v>
   <v>       0.00000000      0.00000000   -127.68594217</v>
  </varray>
  <energy>
   <i name="e_fr_energy">   -100.36111739</i>
   <i name="e_wo_entrp">   -100.36067327</i>
   <i name="e_0_energy">     -0.00088823</i>
  </energy>
  <eigenvalues>
   <array>
    <dimension dim="1">band</dimension>
    <dimension dim="2">kpoint</dimension>
    <dimension dim="3">spin</dimension>
    <field>eigene</field>
    <field>occ</field>
    <set>
     <set comment="spin 1">
      <set comment="kpoint 1">
       <r>  -4.4985  1.0000</r>
       <r>  -2.4498  1.0000</r>
       <r>  -2.4469  1.0000</r>
       <r>  -2.4469  1.0000</r>
       <r>  -2.4469  1.0000</r>
       <r>  -2.4469  1.0000</r>
       <r>  -2.4440  1.0000</r>
       <r>  -2.3173  1.0000</r>
       <r>  -2.3173  1.0000</r>
       <r>  -2.3173  1.0000</r>
       <r>  -2.3173  1.0000</r>
       <r>  -2.0679  1.0000</r>
       <r>  -2.0679  1.0000</r>
       <r>  -2.0679  1.0000</r>
       <r>  -1.8606  1.0000</r>
       <r>  -1.8606  1.0000</r>
       <r>  -1.8606  1.0000</r>
       <r>  -1.3834  1.0000</r>
       <r>  -1.3821  1.0000</r>
       <r>  -1.3821  1.0000</r>
       <r>  -1.3807  1.0000</r>
       <r>  -1.3805  1.0000</r>
       <r>  -1.3805  1.0000</r>
       <r>  -1.3805  1.0000</r>
       <r>  -1.3805  1.0000</r>
       <r>  -1.3803  1.0000</r>
       <r>  -1.3789  1.0000</r>
       <r>  -1.3789  1.0000</r>
       <r>  -1.3776  1.0000</r>
       <r>  -1.2459  1.0000</r>
       <r>  -1.2442  1.0000</r>
       <r>  -1.2442  1.0000</r>
       <r>  -1.2442  1.0000</r>
       <r>  -1.2442  1.0000</r>
       <r>  -1.2426  1.0000</r>
       <r>  -1.1915  1.0000</r>
       <r>  -1.1898  1.0000</r>
       <r>  -1.1898  1.0000</r>
       <r>  -1.1898  1.0000</r>
       <r>  -1.1898  1.0000</r>
       <r>  -1.1882  1.0000</r>
       <r>  -0.7520  1.0000</r>
       <r>  -0.7500  1.0000</r>
       <r>  -0.7500  1.0000</r>
       <r>  -0.7490  1.0000</r>
       <r>  -0.7490  1.0000</r>
       <r>  -0.7490  1.0000</r>
       <r>  -0.7490  1.0000</r>
       <r>  -0.7490  1.0000</r>
       <r>  -0.7489  1.0000</r>
       <r>  -0.7481  1.0000</r>
       <r>  -0.7481  1.0000</r>
       <r>  -0.7461  1.0000</r>
       <r>  -0.6961  1.0000</r>
       <r>  -0.6961  1.0000</r>
       <r>  -0.6943  1.0000</r>
       <r>  -0.6943  1.0000</r>
       <r>  -0.6942  1.0000</r>
       <r>  -0.6942  1.0000</r>
       <r>  -0.6942  1.0000</r>
       <r>  -0.6942  1.0000</r>
       <r>  -0.6942  1.0000</r>
       <r>  -0.6941  1.0000</r>
       <r>  -0.6923  1.0000</r>
       <r>  -0.6923  1.0000</r>
       <r>  -0.4717  1.0000</r>
       <r>  -0.4689  1.0000</r>
       <r>  -0.4687  1.0000</r>
       <r>  -0.4687  1.0000</r>
       <r>  -0.4686  1.0000</r>
       <r>  -0.4686  1.0000</r>
       <r>  -0.4685  1.0000</r>
       <r>  -0.4685  1.0000</r>
       <r>  -0.4684  1.0000</r>
       <r>  -0.4684  1.0000</r>
       <r>  -0.4683  1.0000</r>
       <r>  -0.4655  1.0000</r>
       <r>  -0.4387  1.0000</r>
       <r>  -0.4387  1.0000</r>
       <r>  -0.4387  1.0000</r>
       <r>  -0.4387  1.0000</r>
       <r>  -0.4387  1.0000</r>
       <r>  -0.4387  1.0000</r>
       <r>  -0.4387  1.0000</r>
       <r>  -0.4385  1.0000</r>
       <r>  -0.4230  1.0000</r>
       <r>  -0.4230  1.0000</r>
       <r>  -0.4229  1.0000</r>
       <r>   0.1289  1.0000</r>
       <r>   0.1305  1.0000</r>
       <r>   0.1306  1.0000</r>
       <r>   0.1306  1.0000</r>
       <r>   0.1306  1.0000</r>
       <r>   0.1322  1.0000</r>
       <r>   0.2375  1.0000</r>
       <r>   0.2381  1.0000</r>
       <r>   0.2390  1.0000</r>
       <r>   0.2390  1.0000</r>
       <r>   0.2395  1.0000</r>
       <r>   0.2395  1.0000</r>
       <r>   0.2395  1.0000</r>
       <r>   0.2395  1.0000</r>
       <r>   0.2399  1.0000</r>
       <r>   0.2399  1.0000</r>
       <r>   0.2409  1.0000</r>
       <r>   0.2414  1.0000</r>
       <r>   0.4492  1.0000</r>
       <r>   0.4492  1.0000</r>
       <r>   0.4512  1.0000</r>
       <r>   0.4512  1.0000</r>
       <r>   0.4513  1.0000</r>
       <r>   0.4513  1.0000</r>
       <r>   0.4513  1.0000</r>
       <r>   0.4514  1.0000</r>
       <r>   0.4515  1.0000</r>
       <r>   0.4515  1.0000</r>
       <r>   0.4534  1.0000</r>
       <r>   0.4534  1.0000</r>
       <r>   0.5637  1.0000</r>
       <r>   0.5650  1.0000</r>
       <r>   0.5650  1.0000</r>
       <r>   0.5651  1.0000</r>
       <r>   0.5651  1.0000</r>
       <r>   0.5664  1.0000</r>
       <r>   0.6188  1.0000</r>
       <r>   0.6189  1.0000</r>
       <r>   0.6316  1.0000</r>
       <r>   0.6316  1.0000</r>
       <r>   0.6335  1.0000</r>
       <r>   0.6338  1.0000</r>
       <r>   0.6339  1.0000</r>
       <r>   0.6339  1.0000</r>
       <r>   0.6339  1.0000</r>
       <r>   0.6340  1.0000</r>
       <r>   0.6341  1.0000</r>
       <r>   0.6343  1.0000</r>
       <r>   0.6363  1.0000</r>
       <r>   0.6363  1.0000</r>
       <r>   1.0014  1.0000</r>
       <r>   1.0024  1.0000</r>
       <r>   1.0024  1.0000</r>
       <r>   1.0024  1.0000</r>
       <r>   1.0024  1.0000</r>
       <r>   1.0034  1.0000</r>
       <r>   1.4113  1.0000</r>
       <r>   1.4113  1.0000</r>
       <r>   1.4114  1.0000</r>
       <r>   1.4461  1.0000</r>
       <r>   1.4461  1.0000</r>
       <r>   1.4461  1.0000</r>
       <r>   1.4461  1.0000</r>
       <r>   1.4461  1.0000</r>
       <r>   1.4461  1.0000</r>
       <r>   1.4461  1.0000</r>
       <r>   1.4461  1.0000</r>
       <r>   1.6643  1.0000</r>
       <r>   1.6646  1.0000</r>
       <r>   1.6646  1.0000</r>
       <r>   1.6646  1.0000</r>
       <r>   1.6646  1.0000</r>
       <r>   1.6646  1.0000</r>
       <r>   1.6656  1.0000</r>
       <r>   1.6657  1.0000</r>
       <r>   1.6657  1.0000</r>
       <r>   1.6657  1.0000</r>
       <r>   1.6657  1.0000</r>
       <r>   1.6659  1.0000</r>
       <r>   2.8708  1.0000</r>
       <r>   2.8718  1.0000</r>
       <r>   2.8718  1.0000</r>
       <r>   2.8724  1.0000</r>
       <r>   2.8728  1.0000</r>
       <r>   2.8728  1.0000</r>
       <r>   2.8728  1.0000</r>
       <r>   2.8728  1.0000</r>
       <r>   2.8732  1.0000</r>
       <r>   2.8738  1.0000</r>
       <r>   2.8738  1.0000</r>
       <r>   2.8747  1.0000</r>
       <r>   3.2756  1.0000</r>
       <r>   3.2757  1.0000</r>
       <r>   3.2757  1.0000</r>
       <r>   3.2757  1.0000</r>
       <r>   4.9135  0.0000</r>
       <r>   4.9135  0.0000</r>
       <r>   4.9136  0.0000</r>
       <r>   5.4433  0.0000</r>
       <r>   5.4433  0.0000</r>
       <r>   5.4433  0.0000</r>
       <r>   5.4433  0.0000</r>
       <r>   7.0736  0.0000</r>
       <r>   7.0737  0.0000</r>
       <r>   7.0738  0.0000</r>
       <r>   7.0738  0.0000</r>
       <r>   7.0738  0.0000</r>
       <r>   7.0739  0.0000</r>
       <r>   7.6460  0.0000</r>
       <r>   7.6460  0.0000</r>
       <r>   7.6460  0.0000</r>
       <r>   9.0308  0.0000</r>
       <r>   9.0308  0.0000</r>
       <r>   9.0336  0.0000</r>
       <r>   9.0336  0.0000</r>
       <r>   9.0340  0.0000</r>
       <r>   9.0340  0.0000</r>
       <r>   9.0340  0.0000</r>
       <r>   9.0340  0.0000</r>
       <r>   9.0343  0.0000</r>
       <r>   9.0343  0.0000</r>
       <r>   9.0371  0.0000</r>
       <r>   9.0371  0.0000</r>
       <r>  10.8141  0.0000</r>
      </set>
      <set comment="kpoint 2">
       <r>  -4.4816  1.0000</r>
       <r>  -2.6946  1.0000</r>
       <r>  -2.4348  1.0000</r>
       <r>  -2.4348  1.0000</r>
       <r>  -2.4348  1.0000</r>
       <r>  -2.4348  1.0000</r>
       <r>  -2.3085  1.0000</r>
       <r>  -2.3085  1.0000</r>
       <r>  -2.3085  1.0000</r>
       <r>  -2.3085  1.0000</r>
       <r>  -2.2340  1.0000</r>
       <r>  -2.0629  1.0000</r>
       <r>  -2.0576  1.0000</r>
       <r>  -2.0576  1.0000</r>
       <r>  -1.8552  1.0000</r>
       <r>  -1.8524  1.0000</r>
       <r>  -1.8524  1.0000</r>
       <r>  -1.4640  1.0000</r>
       <r>  -1.4640  1.0000</r>
       <r>  -1.4640  1.0000</r>
       <r>  -1.4639  1.0000</r>
       <r>  -1.4257  1.0000</r>
       <r>  -1.4257  1.0000</r>
       <r>  -1.4256  1.0000</r>
       <r>  -1.4256  1.0000</r>
       <r>  -1.3096  1.0000</r>
       <r>  -1.3096  1.0000</r>
       <r>  -1.3096  1.0000</r>
       <r>  -1.3095  1.0000</r>
       <r>  -1.2822  1.0000</r>
       <r>  -1.2655  1.0000</r>
       <r>  -1.2654  1.0000</r>
       <r>  -1.2373  1.0000</r>
       <r>  -1.2373  1.0000</r>
       <r>  -1.2373  1.0000</r>
       <r>  -1.2373  1.0000</r>
       <r>  -1.1852  1.0000</r>
       <r>  -1.1852  1.0000</r>
       <r>  -1.1852  1.0000</r>
       <r>  -1.1851  1.0000</r>
       <r>  -1.0958  1.0000</r>
       <r>  -0.8773  1.0000</r>
       <r>  -0.8773  1.0000</r>
       <r>  -0.7869  1.0000</r>
       <r>  -0.7868  1.0000</r>
       <r>  -0.7868  1.0000</r>
       <r>  -0.7868  1.0000</r>
       <r>  -0.7200  1.0000</r>
       <r>  -0.7192  1.0000</r>
       <r>  -0.7192  1.0000</r>
       <r>  -0.7192  1.0000</r>
       <r>  -0.7162  1.0000</r>
       <r>  -0.7162  1.0000</r>
       <r>  -0.7162  1.0000</r>
       <r>  -0.7155  1.0000</r>
       <r>  -0.7024  1.0000</r>
       <r>  -0.7024  1.0000</r>
       <r>  -0.7024  1.0000</r>
       <r>  -0.7024  1.0000</r>
       <r>  -0.6934  1.0000</r>
       <r>  -0.6934  1.0000</r>
       <r>  -0.6934  1.0000</r>
       <r>  -0.6931  1.0000</r>
       <r>  -0.5102  1.0000</r>
       <r>  -0.5101  1.0000</r>
       <r>  -0.5101  1.0000</r>
       <r>  -0.5101  1.0000</r>
       <r>  -0.4973  1.0000</r>
       <r>  -0.4973  1.0000</r>
       <r>  -0.4548  1.0000</r>
       <r>  -0.4544  1.0000</r>
       <r>  -0.4544  1.0000</r>
       <r>  -0.4544  1.0000</r>
       <r>  -0.4418  1.0000</r>
       <r>  -0.4418  1.0000</r>
       <r>  -0.4417  1.0000</r>
       <r>  -0.4416  1.0000</r>
       <r>  -0.4393  1.0000</r>
       <r>  -0.4392  1.0000</r>
       <r>  -0.4392  1.0000</r>
       <r>  -0.4389  1.0000</r>
       <r>  -0.4320  1.0000</r>
       <r>  -0.4320  1.0000</r>
       <r>  -0.4320  1.0000</r>
       <r>  -0.4320  1.0000</r>
       <r>  -0.4300  1.0000</r>
       <r>  -0.4164  1.0000</r>
       <r>  -0.4164  1.0000</r>
       <r>   0.0854  1.0000</r>
       <r>   0.0854  1.0000</r>
       <r>   0.0854  1.0000</r>
       <r>   0.0854  1.0000</r>
       <r>   0.1040  1.0000</r>
       <r>   0.2073  1.0000</r>
       <r>   0.2073  1.0000</r>
       <r>   0.2073  1.0000</r>
       <r>   0.2074  1.0000</r>
       <r>   0.2248  1.0000</r>
       <r>   0.2402  1.0000</r>
       <r>   0.2402  1.0000</r>
       <r>   0.2402  1.0000</r>
       <r>   0.2404  1.0000</r>
       <r>   0.2779  1.0000</r>
       <r>   0.2779  1.0000</r>
       <r>   0.2780  1.0000</r>
       <r>   0.2780  1.0000</r>
       <r>   0.3230  1.0000</r>
       <r>   0.3230  1.0000</r>
       <r>   0.4509  1.0000</r>
       <r>   0.4509  1.0000</r>
       <r>   0.4509  1.0000</r>
       <r>   0.4509  1.0000</r>
       <r>   0.4905  1.0000</r>
       <r>   0.4905  1.0000</r>
       <r>   0.4905  1.0000</r>
       <r>   0.4905  1.0000</r>
       <r>   0.5681  1.0000</r>
       <r>   0.5681  1.0000</r>
       <r>   0.5682  1.0000</r>
       <r>   0.5683  1.0000</r>
       <r>   0.5726  1.0000</r>
       <r>   0.5726  1.0000</r>
       <r>   0.5727  1.0000</r>
       <r>   0.5727  1.0000</r>
       <r>   0.5852  1.0000</r>
       <r>   0.5852  1.0000</r>
       <r>   0.5870  1.0000</r>
       <r>   0.5871  1.0000</r>
       <r>   0.6115  1.0000</r>
       <r>   0.6221  1.0000</r>
       <r>   0.6682  1.0000</r>
       <r>   0.6683  1.0000</r>
       <r>   0.6683  1.0000</r>
       <r>   0.6683  1.0000</r>
       <r>   0.7102  1.0000</r>
       <r>   0.7102  1.0000</r>
       <r>   0.7103  1.0000</r>
       <r>   0.7103  1.0000</r>
       <r>   0.9509  1.0000</r>
       <r>   1.0123  1.0000</r>
       <r>   1.0123  1.0000</r>
       <r>   1.0123  1.0000</r>
       <r>   1.0123  1.0000</r>
       <r>   1.0542  1.0000</r>
       <r>   1.4011  1.0000</r>
       <r>   1.4011  1.0000</r>
       <r>   1.4077  1.0000</r>
       <r>   1.4114  1.0000</r>
       <r>   1.4114  1.0000</r>
       <r>   1.4114  1.0000</r>
       <r>   1.4114  1.0000</r>
       <r>   1.4371  1.0000</r>
       <r>   1.4371  1.0000</r>
       <r>   1.4371  1.0000</r>
       <r>   1.4371  1.0000</r>
       <r>   1.6227  1.0000</r>
       <r>   1.6227  1.0000</r>
       <r>   1.6517  1.0000</r>
       <r>   1.6517  1.0000</r>
       <r>   1.6517  1.0000</r>
       <r>   1.6517  1.0000</r>
       <r>   1.6518  1.0000</r>
       <r>   1.6518  1.0000</r>
       <r>   1.6643  1.0000</r>
       <r>   1.6646  1.0000</r>
       <r>   1.6656  1.0000</r>
       <r>   1.6659  1.0000</r>
       <r>   2.6205  1.0000</r>
       <r>   2.6205  1.0000</r>
       <r>   2.6205  1.0000</r>
       <r>   2.6206  1.0000</r>
       <r>   2.8750  1.0000</r>
       <r>   2.8750  1.0000</r>
       <r>   2.8750  1.0000</r>
       <r>   2.8750  1.0000</r>
       <r>   3.1478  1.0000</r>
       <r>   3.1478  1.0000</r>
       <r>   3.1478  1.0000</r>
       <r>   3.1479  1.0000</r>
       <r>   3.2514  1.0000</r>
       <r>   3.2514  1.0000</r>
       <r>   3.2514  1.0000</r>
       <r>   3.2515  1.0000</r>
       <r>   4.7188  0.0000</r>
       <r>   4.9686  0.0000</r>
       <r>   4.9686  0.0000</r>
       <r>   5.5257  0.0000</r>
       <r>   5.5257  0.0000</r>
       <r>   5.5257  0.0000</r>
       <r>   5.5258  0.0000</r>
       <r>   6.9688  0.0000</r>
       <r>   6.9688  0.0000</r>
       <r>   6.9688  0.0000</r>
       <r>   6.9688  0.0000</r>
       <r>   7.0830  0.0000</r>
       <r>   7.0830  0.0000</r>
       <r>   7.6359  0.0000</r>
       <r>   7.6359  0.0000</r>
       <r>   7.8710  0.0000</r>
       <r>   8.5772  0.0000</r>
       <r>   8.5772  0.0000</r>
       <r>   9.0554  0.0000</r>
       <r>   9.0554  0.0000</r>
       <r>   9.0555  0.0000</r>
       <r>   9.0556  0.0000</r>
       <r>   9.0630  0.0000</r>
       <r>   9.0630  0.0000</r>
       <r>   9.0630  0.0000</r>
       <r>   9.0630  0.0000</r>
       <r>   9.4893  0.0000</r>
       <r>   9.4893  0.0000</r>
       <r>  10.5173  0.0000</r>
      </set>
      <set comment="kpoint 3">
       <r>  -4.4311  1.0000</r>
       <r>  -2.9573  1.0000</r>
       <r>  -2.3988  1.0000</r>
       <r>  -2.3988  1.0000</r>
       <r>  -2.3988  1.0000</r>
       <r>  -2.3988  1.0000</r>
       <r>  -2.2823  1.0000</r>
       <r>  -2.2823  1.0000</r>
       <r>  -2.2823  1.0000</r>
       <r>  -2.2823  1.0000</r>
       <r>  -2.0743  1.0000</r>
       <r>  -2.0482  1.0000</r>
       <r>  -2.0270  1.0000</r>
       <r>  -2.0270  1.0000</r>
       <r>  -1.8391  1.0000</r>
       <r>  -1.8277  1.0000</r>
       <r>  -1.8277  1.0000</r>
       <r>  -1.5624  1.0000</r>
       <r>  -1.5624  1.0000</r>
       <r>  -1.5624  1.0000</r>
       <r>  -1.5624  1.0000</r>
       <r>  -1.5313  1.0000</r>
       <r>  -1.5313  1.0000</r>
       <r>  -1.5313  1.0000</r>
       <r>  -1.5313  1.0000</r>
       <r>  -1.3715  1.0000</r>
       <r>  -1.3246  1.0000</r>
       <r>  -1.3245  1.0000</r>
       <r>  -1.2475  1.0000</r>
       <r>  -1.2475  1.0000</r>
       <r>  -1.2475  1.0000</r>
       <r>  -1.2475  1.0000</r>
       <r>  -1.2171  1.0000</r>
       <r>  -1.2171  1.0000</r>
       <r>  -1.2171  1.0000</r>
       <r>  -1.2171  1.0000</r>
       <r>  -1.1712  1.0000</r>
       <r>  -1.1712  1.0000</r>
       <r>  -1.1712  1.0000</r>
       <r>  -1.1712  1.0000</r>
       <r>  -1.0457  1.0000</r>
       <r>  -1.0457  1.0000</r>
       <r>  -1.0019  1.0000</r>
       <r>  -0.8316  1.0000</r>
       <r>  -0.8315  1.0000</r>
       <r>  -0.8315  1.0000</r>
       <r>  -0.8315  1.0000</r>
       <r>  -0.7255  1.0000</r>
       <r>  -0.7255  1.0000</r>
       <r>  -0.7255  1.0000</r>
       <r>  -0.7255  1.0000</r>
       <r>  -0.6982  1.0000</r>
       <r>  -0.6977  1.0000</r>
       <r>  -0.6977  1.0000</r>
       <r>  -0.6977  1.0000</r>
       <r>  -0.6910  1.0000</r>
       <r>  -0.6910  1.0000</r>
       <r>  -0.6910  1.0000</r>
       <r>  -0.6906  1.0000</r>
       <r>  -0.6589  1.0000</r>
       <r>  -0.6588  1.0000</r>
       <r>  -0.6588  1.0000</r>
       <r>  -0.6588  1.0000</r>
       <r>  -0.5752  1.0000</r>
       <r>  -0.5752  1.0000</r>
       <r>  -0.5752  1.0000</r>
       <r>  -0.5752  1.0000</r>
       <r>  -0.4573  1.0000</r>
       <r>  -0.4571  1.0000</r>
       <r>  -0.4571  1.0000</r>
       <r>  -0.4571  1.0000</r>
       <r>  -0.4511  1.0000</r>
       <r>  -0.4506  1.0000</r>
       <r>  -0.4506  1.0000</r>
       <r>  -0.4506  1.0000</r>
       <r>  -0.4504  1.0000</r>
       <r>  -0.4121  1.0000</r>
       <r>  -0.4121  1.0000</r>
       <r>  -0.4121  1.0000</r>
       <r>  -0.4120  1.0000</r>
       <r>  -0.3967  1.0000</r>
       <r>  -0.3967  1.0000</r>
       <r>  -0.3407  1.0000</r>
       <r>  -0.3407  1.0000</r>
       <r>  -0.3407  1.0000</r>
       <r>  -0.3407  1.0000</r>
       <r>  -0.2875  1.0000</r>
       <r>  -0.2875  1.0000</r>
       <r>  -0.0085  1.0000</r>
       <r>  -0.0085  1.0000</r>
       <r>  -0.0085  1.0000</r>
       <r>  -0.0085  1.0000</r>
       <r>   0.1239  1.0000</r>
       <r>   0.1331  1.0000</r>
       <r>   0.1331  1.0000</r>
       <r>   0.1331  1.0000</r>
       <r>   0.1331  1.0000</r>
       <r>   0.2016  1.0000</r>
       <r>   0.2016  1.0000</r>
       <r>   0.2775  1.0000</r>
       <r>   0.2775  1.0000</r>
       <r>   0.2775  1.0000</r>
       <r>   0.2775  1.0000</r>
       <r>   0.3428  1.0000</r>
       <r>   0.3428  1.0000</r>
       <r>   0.3428  1.0000</r>
       <r>   0.3428  1.0000</r>
       <r>   0.4068  1.0000</r>
       <r>   0.4497  1.0000</r>
       <r>   0.4497  1.0000</r>
       <r>   0.4497  1.0000</r>
       <r>   0.4497  1.0000</r>
       <r>   0.5260  1.0000</r>
       <r>   0.5260  1.0000</r>
       <r>   0.5260  1.0000</r>
       <r>   0.5260  1.0000</r>
       <r>   0.5597  1.0000</r>
       <r>   0.5598  1.0000</r>
       <r>   0.5598  1.0000</r>
       <r>   0.5598  1.0000</r>
       <r>   0.5766  1.0000</r>
       <r>   0.5766  1.0000</r>
       <r>   0.5766  1.0000</r>
       <r>   0.5766  1.0000</r>
       <r>   0.5896  1.0000</r>
       <r>   0.6315  1.0000</r>
       <r>   0.6485  1.0000</r>
       <r>   0.6486  1.0000</r>
       <r>   0.7222  1.0000</r>
       <r>   0.7222  1.0000</r>
       <r>   0.7491  1.0000</r>
       <r>   0.7491  1.0000</r>
       <r>   0.7491  1.0000</r>
       <r>   0.7491  1.0000</r>
       <r>   0.8008  1.0000</r>
       <r>   0.8008  1.0000</r>
       <r>   0.8008  1.0000</r>
       <r>   0.8008  1.0000</r>
       <r>   0.9008  1.0000</r>
       <r>   1.0488  1.0000</r>
       <r>   1.0488  1.0000</r>
       <r>   1.0488  1.0000</r>
       <r>   1.0488  1.0000</r>
       <r>   1.1056  1.0000</r>
       <r>   1.3108  1.0000</r>
       <r>   1.3109  1.0000</r>
       <r>   1.3109  1.0000</r>
       <r>   1.3109  1.0000</r>
       <r>   1.3705  1.0000</r>
       <r>   1.3705  1.0000</r>
       <r>   1.3970  1.0000</r>
       <r>   1.4103  1.0000</r>
       <r>   1.4103  1.0000</r>
       <r>   1.4103  1.0000</r>
       <r>   1.4104  1.0000</r>
       <r>   1.5053  1.0000</r>
       <r>   1.5053  1.0000</r>
       <r>   1.6106  1.0000</r>
       <r>   1.6106  1.0000</r>
       <r>   1.6106  1.0000</r>
       <r>   1.6106  1.0000</r>
       <r>   1.6139  1.0000</r>
       <r>   1.6139  1.0000</r>
       <r>   1.6644  1.0000</r>
       <r>   1.6646  1.0000</r>
       <r>   1.6656  1.0000</r>
       <r>   1.6659  1.0000</r>
       <r>   2.3865  1.0000</r>
       <r>   2.3865  1.0000</r>
       <r>   2.3865  1.0000</r>
       <r>   2.3865  1.0000</r>
       <r>   2.8818  1.0000</r>
       <r>   2.8818  1.0000</r>
       <r>   2.8818  1.0000</r>
       <r>   2.8818  1.0000</r>
       <r>   3.1921  1.0000</r>
       <r>   3.1921  1.0000</r>
       <r>   3.1921  1.0000</r>
       <r>   3.1921  1.0000</r>
       <r>   3.4503  0.0000</r>
       <r>   3.4503  0.0000</r>
       <r>   3.4503  0.0000</r>
       <r>   3.4504  0.0000</r>
       <r>   4.2589  0.0000</r>
       <r>   5.1258  0.0000</r>
       <r>   5.1258  0.0000</r>
       <r>   5.7562  0.0000</r>
       <r>   5.7562  0.0000</r>
       <r>   5.7562  0.0000</r>
       <r>   5.7563  0.0000</r>
       <r>   6.6894  0.0000</r>
       <r>   6.6894  0.0000</r>
       <r>   6.6894  0.0000</r>
       <r>   6.6894  0.0000</r>
       <r>   7.1103  0.0000</r>
       <r>   7.1103  0.0000</r>
       <r>   7.6064  0.0000</r>
       <r>   7.6064  0.0000</r>
       <r>   8.1225  0.0000</r>
       <r>   8.1225  0.0000</r>
       <r>   8.4217  0.0000</r>
       <r>   9.1094  0.0000</r>
       <r>   9.1094  0.0000</r>
       <r>   9.1095  0.0000</r>
       <r>   9.1095  0.0000</r>
       <r>   9.1491  0.0000</r>
       <r>   9.1491  0.0000</r>
       <r>   9.1491  0.0000</r>
       <r>   9.1491  0.0000</r>
       <r>   9.9395  0.0000</r>
       <r>   9.9441  0.0000</r>
       <r>   9.9503  0.0000</r>
      </set>
      <set comment="kpoint 4">
       <r>  -4.3472  1.0000</r>
       <r>  -3.2192  1.0000</r>
       <r>  -2.3399  1.0000</r>
       <r>  -2.3399  1.0000</r>
       <r>  -2.3399  1.0000</r>
       <r>  -2.3399  1.0000</r>
       <r>  -2.2389  1.0000</r>
       <r>  -2.2389  1.0000</r>
       <r>  -2.2389  1.0000</r>
       <r>  -2.2389  1.0000</r>
       <r>  -2.0252  1.0000</r>
       <r>  -1.9770  1.0000</r>
       <r>  -1.9768  1.0000</r>
       <r>  -1.9744  1.0000</r>
       <r>  -1.8123  1.0000</r>
       <r>  -1.7867  1.0000</r>
       <r>  -1.7867  1.0000</r>
       <r>  -1.6754  1.0000</r>
       <r>  -1.6754  1.0000</r>
       <r>  -1.6753  1.0000</r>
       <r>  -1.6753  1.0000</r>
       <r>  -1.6575  1.0000</r>
       <r>  -1.6574  1.0000</r>
       <r>  -1.6574  1.0000</r>
       <r>  -1.6574  1.0000</r>
       <r>  -1.4563  1.0000</r>
       <r>  -1.4113  1.0000</r>
       <r>  -1.4113  1.0000</r>
       <r>  -1.1992  1.0000</r>
       <r>  -1.1992  1.0000</r>
       <r>  -1.1916  1.0000</r>
       <r>  -1.1914  1.0000</r>
       <r>  -1.1914  1.0000</r>
       <r>  -1.1914  1.0000</r>
       <r>  -1.1853  1.0000</r>
       <r>  -1.1853  1.0000</r>
       <r>  -1.1853  1.0000</r>
       <r>  -1.1852  1.0000</r>
       <r>  -1.1483  1.0000</r>
       <r>  -1.1483  1.0000</r>
       <r>  -1.1483  1.0000</r>
       <r>  -1.1483  1.0000</r>
       <r>  -0.9095  1.0000</r>
       <r>  -0.8810  1.0000</r>
       <r>  -0.8810  1.0000</r>
       <r>  -0.8810  1.0000</r>
       <r>  -0.8810  1.0000</r>
       <r>  -0.7596  1.0000</r>
       <r>  -0.7596  1.0000</r>
       <r>  -0.7596  1.0000</r>
       <r>  -0.7596  1.0000</r>
       <r>  -0.6883  1.0000</r>
       <r>  -0.6875  1.0000</r>
       <r>  -0.6875  1.0000</r>
       <r>  -0.6875  1.0000</r>
       <r>  -0.6839  1.0000</r>
       <r>  -0.6838  1.0000</r>
       <r>  -0.6838  1.0000</r>
       <r>  -0.6831  1.0000</r>
       <r>  -0.6527  1.0000</r>
       <r>  -0.6526  1.0000</r>
       <r>  -0.6526  1.0000</r>
       <r>  -0.6526  1.0000</r>
       <r>  -0.6161  1.0000</r>
       <r>  -0.6161  1.0000</r>
       <r>  -0.6161  1.0000</r>
       <r>  -0.6160  1.0000</r>
       <r>  -0.4855  1.0000</r>
       <r>  -0.4651  1.0000</r>
       <r>  -0.4649  1.0000</r>
       <r>  -0.4649  1.0000</r>
       <r>  -0.4649  1.0000</r>
       <r>  -0.4587  1.0000</r>
       <r>  -0.4587  1.0000</r>
       <r>  -0.4587  1.0000</r>
       <r>  -0.4585  1.0000</r>
       <r>  -0.3791  1.0000</r>
       <r>  -0.3791  1.0000</r>
       <r>  -0.3791  1.0000</r>
       <r>  -0.3791  1.0000</r>
       <r>  -0.3640  1.0000</r>
       <r>  -0.3640  1.0000</r>
       <r>  -0.1753  1.0000</r>
       <r>  -0.1752  1.0000</r>
       <r>  -0.1752  1.0000</r>
       <r>  -0.1752  1.0000</r>
       <r>  -0.1112  1.0000</r>
       <r>  -0.1112  1.0000</r>
       <r>  -0.1112  1.0000</r>
       <r>  -0.1112  1.0000</r>
       <r>  -0.0660  1.0000</r>
       <r>  -0.0660  1.0000</r>
       <r>   0.0446  1.0000</r>
       <r>   0.0446  1.0000</r>
       <r>   0.0446  1.0000</r>
       <r>   0.0446  1.0000</r>
       <r>   0.0887  1.0000</r>
       <r>   0.0887  1.0000</r>
       <r>   0.1725  1.0000</r>
       <r>   0.3377  1.0000</r>
       <r>   0.3377  1.0000</r>
       <r>   0.3377  1.0000</r>
       <r>   0.3377  1.0000</r>
       <r>   0.4159  1.0000</r>
       <r>   0.4159  1.0000</r>
       <r>   0.4159  1.0000</r>
       <r>   0.4159  1.0000</r>
       <r>   0.4481  1.0000</r>
       <r>   0.4481  1.0000</r>
       <r>   0.4481  1.0000</r>
       <r>   0.4481  1.0000</r>
       <r>   0.4927  1.0000</r>
       <r>   0.4927  1.0000</r>
       <r>   0.4927  1.0000</r>
       <r>   0.4927  1.0000</r>
       <r>   0.5539  1.0000</r>
       <r>   0.5860  1.0000</r>
       <r>   0.5860  1.0000</r>
       <r>   0.5860  1.0000</r>
       <r>   0.5860  1.0000</r>
       <r>   0.6058  1.0000</r>
       <r>   0.6058  1.0000</r>
       <r>   0.6058  1.0000</r>
       <r>   0.6059  1.0000</r>
       <r>   0.6473  1.0000</r>
       <r>   0.6843  1.0000</r>
       <r>   0.7388  1.0000</r>
       <r>   0.7388  1.0000</r>
       <r>   0.8478  1.0000</r>
       <r>   0.8481  1.0000</r>
       <r>   0.8481  1.0000</r>
       <r>   0.8481  1.0000</r>
       <r>   0.8531  1.0000</r>
       <r>   0.8606  1.0000</r>
       <r>   0.8606  1.0000</r>
       <r>   0.9033  1.0000</r>
       <r>   0.9033  1.0000</r>
       <r>   0.9033  1.0000</r>
       <r>   0.9033  1.0000</r>
       <r>   1.1260  1.0000</r>
       <r>   1.1260  1.0000</r>
       <r>   1.1260  1.0000</r>
       <r>   1.1260  1.0000</r>
       <r>   1.1544  1.0000</r>
       <r>   1.1544  1.0000</r>
       <r>   1.1544  1.0000</r>
       <r>   1.1544  1.0000</r>
       <r>   1.1556  1.0000</r>
       <r>   1.3201  1.0000</r>
       <r>   1.3201  1.0000</r>
       <r>   1.3309  1.0000</r>
       <r>   1.3309  1.0000</r>
       <r>   1.3666  1.0000</r>
       <r>   1.3666  1.0000</r>
       <r>   1.3666  1.0000</r>
       <r>   1.3666  1.0000</r>
       <r>   1.3792  1.0000</r>
       <r>   1.5452  1.0000</r>
       <r>   1.5452  1.0000</r>
       <r>   1.5452  1.0000</r>
       <r>   1.5452  1.0000</r>
       <r>   1.5527  1.0000</r>
       <r>   1.5527  1.0000</r>
       <r>   1.6644  1.0000</r>
       <r>   1.6647  1.0000</r>
       <r>   1.6655  1.0000</r>
       <r>   1.6658  1.0000</r>
       <r>   2.1668  1.0000</r>
       <r>   2.1668  1.0000</r>
       <r>   2.1668  1.0000</r>
       <r>   2.1668  1.0000</r>
       <r>   2.8935  1.0000</r>
       <r>   2.8935  1.0000</r>
       <r>   2.8935  1.0000</r>
       <r>   2.8935  1.0000</r>
       <r>   3.1223  1.0000</r>
       <r>   3.1223  1.0000</r>
       <r>   3.1223  1.0000</r>
       <r>   3.1223  1.0000</r>
       <r>   3.6971  0.0000</r>
       <r>   3.7838  0.0000</r>
       <r>   3.7838  0.0000</r>
       <r>   3.7838  0.0000</r>
       <r>   3.7838  0.0000</r>
       <r>   5.3661  0.0000</r>
       <r>   5.3661  0.0000</r>
       <r>   6.1000  0.0000</r>
       <r>   6.1000  0.0000</r>
       <r>   6.1000  0.0000</r>
       <r>   6.1000  0.0000</r>
       <r>   6.3040  0.0000</r>
       <r>   6.3040  0.0000</r>
       <r>   6.3040  0.0000</r>
       <r>   6.3040  0.0000</r>
       <r>   7.1540  0.0000</r>
       <r>   7.1540  0.0000</r>
       <r>   7.5596  0.0000</r>
       <r>   7.5596  0.0000</r>
       <r>   7.6735  0.0000</r>
       <r>   7.6735  0.0000</r>
       <r>   9.1357  0.0000</r>
       <r>   9.1815  0.0000</r>
       <r>   9.1815  0.0000</r>
       <r>   9.1816  0.0000</r>
       <r>   9.1817  0.0000</r>
       <r>   9.2896  0.0000</r>
       <r>   9.2896  0.0000</r>
       <r>   9.2896  0.0000</r>
       <r>   9.2949  0.0000</r>
       <r>   9.3309  0.0000</r>
       <r>   9.3310  0.0000</r>
       <r>   9.3310  0.0000</r>
      </set>
      <set comment="kpoint 5">
       <r>  -4.2309  1.0000</r>
       <r>  -3.4689  1.0000</r>
       <r>  -2.2599  1.0000</r>
       <r>  -2.2599  1.0000</r>
       <r>  -2.2599  1.0000</r>
       <r>  -2.2599  1.0000</r>
       <r>  -2.1785  1.0000</r>
       <r>  -2.1785  1.0000</r>
       <r>  -2.1785  1.0000</r>
       <r>  -2.1785  1.0000</r>
       <r>  -1.9961  1.0000</r>
       <r>  -1.9286  1.0000</r>
       <r>  -1.9085  1.0000</r>
       <r>  -1.9085  1.0000</r>
       <r>  -1.7985  1.0000</r>
       <r>  -1.7985  1.0000</r>
       <r>  -1.7984  1.0000</r>
       <r>  -1.7984  1.0000</r>
       <r>  -1.7842  1.0000</r>
       <r>  -1.7841  1.0000</r>
       <r>  -1.7841  1.0000</r>
       <r>  -1.7841  1.0000</r>
       <r>  -1.7753  1.0000</r>
       <r>  -1.7292  1.0000</r>
       <r>  -1.7292  1.0000</r>
       <r>  -1.5354  1.0000</r>
       <r>  -1.5139  1.0000</r>
       <r>  -1.5139  1.0000</r>
       <r>  -1.3370  1.0000</r>
       <r>  -1.3370  1.0000</r>
       <r>  -1.1460  1.0000</r>
       <r>  -1.1457  1.0000</r>
       <r>  -1.1457  1.0000</r>
       <r>  -1.1457  1.0000</r>
       <r>  -1.1415  1.0000</r>
       <r>  -1.1415  1.0000</r>
       <r>  -1.1415  1.0000</r>
       <r>  -1.1412  1.0000</r>
       <r>  -1.1172  1.0000</r>
       <r>  -1.1172  1.0000</r>
       <r>  -1.1172  1.0000</r>
       <r>  -1.1172  1.0000</r>
       <r>  -0.9329  1.0000</r>
       <r>  -0.9329  1.0000</r>
       <r>  -0.9329  1.0000</r>
       <r>  -0.9329  1.0000</r>
       <r>  -0.8205  1.0000</r>
       <r>  -0.7978  1.0000</r>
       <r>  -0.7978  1.0000</r>
       <r>  -0.7978  1.0000</r>
       <r>  -0.7978  1.0000</r>
       <r>  -0.7307  1.0000</r>
       <r>  -0.7307  1.0000</r>
       <r>  -0.7307  1.0000</r>
       <r>  -0.7307  1.0000</r>
       <r>  -0.6837  1.0000</r>
       <r>  -0.6832  1.0000</r>
       <r>  -0.6832  1.0000</r>
       <r>  -0.6832  1.0000</r>
       <r>  -0.6766  1.0000</r>
       <r>  -0.6765  1.0000</r>
       <r>  -0.6765  1.0000</r>
       <r>  -0.6760  1.0000</r>
       <r>  -0.5844  1.0000</r>
       <r>  -0.5844  1.0000</r>
       <r>  -0.5844  1.0000</r>
       <r>  -0.5844  1.0000</r>
       <r>  -0.5325  1.0000</r>
       <r>  -0.4837  1.0000</r>
       <r>  -0.4837  1.0000</r>
       <r>  -0.4837  1.0000</r>
       <r>  -0.4837  1.0000</r>
       <r>  -0.4464  1.0000</r>
       <r>  -0.4464  1.0000</r>
       <r>  -0.4464  1.0000</r>
       <r>  -0.4463  1.0000</r>
       <r>  -0.3336  1.0000</r>
       <r>  -0.3336  1.0000</r>
       <r>  -0.3336  1.0000</r>
       <r>  -0.3336  1.0000</r>
       <r>  -0.3185  1.0000</r>
       <r>  -0.3185  1.0000</r>
       <r>  -0.2083  1.0000</r>
       <r>  -0.2083  1.0000</r>
       <r>  -0.2083  1.0000</r>
       <r>  -0.2083  1.0000</r>
       <r>  -0.0452  1.0000</r>
       <r>  -0.0452  1.0000</r>
       <r>  -0.0452  1.0000</r>
       <r>  -0.0451  1.0000</r>
       <r>  -0.0149  1.0000</r>
       <r>  -0.0149  1.0000</r>
       <r>   0.0312  1.0000</r>
       <r>   0.0313  1.0000</r>
       <r>   0.0313  1.0000</r>
       <r>   0.0313  1.0000</r>
       <r>   0.1654  1.0000</r>
       <r>   0.1654  1.0000</r>
       <r>   0.2370  1.0000</r>
       <r>   0.4073  1.0000</r>
       <r>   0.4073  1.0000</r>
       <r>   0.4073  1.0000</r>
       <r>   0.4073  1.0000</r>
       <r>   0.4468  1.0000</r>
       <r>   0.4468  1.0000</r>
       <r>   0.4468  1.0000</r>
       <r>   0.4469  1.0000</r>
       <r>   0.4704  1.0000</r>
       <r>   0.4704  1.0000</r>
       <r>   0.4704  1.0000</r>
       <r>   0.4704  1.0000</r>
       <r>   0.4828  1.0000</r>
       <r>   0.4828  1.0000</r>
       <r>   0.4828  1.0000</r>
       <r>   0.4828  1.0000</r>
       <r>   0.5056  1.0000</r>
       <r>   0.5916  1.0000</r>
       <r>   0.5916  1.0000</r>
       <r>   0.5916  1.0000</r>
       <r>   0.5916  1.0000</r>
       <r>   0.6121  1.0000</r>
       <r>   0.6121  1.0000</r>
       <r>   0.6122  1.0000</r>
       <r>   0.6122  1.0000</r>
       <r>   0.6689  1.0000</r>
       <r>   0.8077  1.0000</r>
       <r>   0.8453  1.0000</r>
       <r>   0.8453  1.0000</r>
       <r>   0.9516  1.0000</r>
       <r>   0.9516  1.0000</r>
       <r>   0.9516  1.0000</r>
       <r>   0.9516  1.0000</r>
       <r>   0.9564  1.0000</r>
       <r>   0.9565  1.0000</r>
       <r>   0.9565  1.0000</r>
       <r>   0.9565  1.0000</r>
       <r>   0.9977  1.0000</r>
       <r>   0.9977  1.0000</r>
       <r>   1.0146  1.0000</r>
       <r>   1.0146  1.0000</r>
       <r>   1.0146  1.0000</r>
       <r>   1.0146  1.0000</r>
       <r>   1.0513  1.0000</r>
       <r>   1.1197  1.0000</r>
       <r>   1.1197  1.0000</r>
       <r>   1.2034  1.0000</r>
       <r>   1.2468  1.0000</r>
       <r>   1.2470  1.0000</r>
       <r>   1.2470  1.0000</r>
       <r>   1.2470  1.0000</r>
       <r>   1.2511  1.0000</r>
       <r>   1.2512  1.0000</r>
       <r>   1.3070  1.0000</r>
       <r>   1.3071  1.0000</r>
       <r>   1.3071  1.0000</r>
       <r>   1.3071  1.0000</r>
       <r>   1.3549  1.0000</r>
       <r>   1.4595  1.0000</r>
       <r>   1.4595  1.0000</r>
       <r>   1.4595  1.0000</r>
       <r>   1.4595  1.0000</r>
       <r>   1.4704  1.0000</r>
       <r>   1.4704  1.0000</r>
       <r>   1.6645  1.0000</r>
       <r>   1.6648  1.0000</r>
       <r>   1.6654  1.0000</r>
       <r>   1.6658  1.0000</r>
       <r>   1.9586  1.0000</r>
       <r>   1.9586  1.0000</r>
       <r>   1.9586  1.0000</r>
       <r>   1.9586  1.0000</r>
       <r>   2.9105  1.0000</r>
       <r>   2.9106  1.0000</r>
       <r>   2.9106  1.0000</r>
       <r>   2.9106  1.0000</r>
       <r>   3.0585  1.0000</r>
       <r>   3.0585  1.0000</r>
       <r>   3.0585  1.0000</r>
       <r>   3.0585  1.0000</r>
       <r>   3.1121  1.0000</r>
       <r>   4.1499  0.0000</r>
       <r>   4.1499  0.0000</r>
       <r>   4.1499  0.0000</r>
       <r>   4.1499  0.0000</r>
       <r>   5.6691  0.0000</r>
       <r>   5.6691  0.0000</r>
       <r>   5.8682  0.0000</r>
       <r>   5.8682  0.0000</r>
       <r>   5.8682  0.0000</r>
       <r>   5.8682  0.0000</r>
       <r>   6.5258  0.0000</r>
       <r>   6.5258  0.0000</r>
       <r>   6.5258  0.0000</r>
       <r>   6.5258  0.0000</r>
       <r>   7.2116  0.0000</r>
       <r>   7.2116  0.0000</r>
       <r>   7.2340  0.0000</r>
       <r>   7.2340  0.0000</r>
       <r>   7.4987  0.0000</r>
       <r>   7.4987  0.0000</r>
       <r>   8.7137  0.0000</r>
       <r>   8.7137  0.0000</r>
       <r>   8.7137  0.0000</r>
       <r>   8.7137  0.0000</r>
       <r>   9.2679  0.0000</r>
       <r>   9.2679  0.0000</r>
       <r>   9.2679  0.0000</r>
       <r>   9.2679  0.0000</r>
       <r>   9.4803  0.0000</r>
       <r>   9.4803  0.0000</r>
       <r>   9.4803  0.0000</r>
       <r>   9.4803  0.0000</r>
      </set>
      <set comment="kpoint 6">
       <r>  -4.0829  1.0000</r>
       <r>  -3.6992  1.0000</r>
       <r>  -2.1615  1.0000</r>
       <r>  -2.1614  1.0000</r>
       <r>  -2.1614  1.0000</r>
       <r>  -2.1614  1.0000</r>
       <r>  -2.1017  1.0000</r>
       <r>  -2.1017  1.0000</r>
       <r>  -2.1017  1.0000</r>
       <r>  -2.1017  1.0000</r>
       <r>  -1.9649  1.0000</r>
       <r>  -1.9253  1.0000</r>
       <r>  -1.9251  1.0000</r>
       <r>  -1.9251  1.0000</r>
       <r>  -1.9251  1.0000</r>
       <r>  -1.9208  1.0000</r>
       <r>  -1.9028  1.0000</r>
       <r>  -1.9028  1.0000</r>
       <r>  -1.9028  1.0000</r>
       <r>  -1.9027  1.0000</r>
       <r>  -1.8243  1.0000</r>
       <r>  -1.8243  1.0000</r>
       <r>  -1.7285  1.0000</r>
       <r>  -1.6554  1.0000</r>
       <r>  -1.6554  1.0000</r>
       <r>  -1.6219  1.0000</r>
       <r>  -1.6219  1.0000</r>
       <r>  -1.6078  1.0000</r>
       <r>  -1.4591  1.0000</r>
       <r>  -1.4591  1.0000</r>
       <r>  -1.1078  1.0000</r>
       <r>  -1.1074  1.0000</r>
       <r>  -1.1074  1.0000</r>
       <r>  -1.1074  1.0000</r>
       <r>  -1.1028  1.0000</r>
       <r>  -1.1028  1.0000</r>
       <r>  -1.1028  1.0000</r>
       <r>  -1.1024  1.0000</r>
       <r>  -1.0786  1.0000</r>
       <r>  -1.0786  1.0000</r>
       <r>  -1.0786  1.0000</r>
       <r>  -1.0786  1.0000</r>
       <r>  -0.9847  1.0000</r>
       <r>  -0.9847  1.0000</r>
       <r>  -0.9847  1.0000</r>
       <r>  -0.9847  1.0000</r>
       <r>  -0.8288  1.0000</r>
       <r>  -0.8288  1.0000</r>
       <r>  -0.8288  1.0000</r>
       <r>  -0.8288  1.0000</r>
       <r>  -0.7967  1.0000</r>
       <r>  -0.7967  1.0000</r>
       <r>  -0.7967  1.0000</r>
       <r>  -0.7967  1.0000</r>
       <r>  -0.7366  1.0000</r>
       <r>  -0.6796  1.0000</r>
       <r>  -0.6789  1.0000</r>
       <r>  -0.6789  1.0000</r>
       <r>  -0.6789  1.0000</r>
       <r>  -0.6743  1.0000</r>
       <r>  -0.6742  1.0000</r>
       <r>  -0.6742  1.0000</r>
       <r>  -0.6735  1.0000</r>
       <r>  -0.5910  1.0000</r>
       <r>  -0.5567  1.0000</r>
       <r>  -0.5567  1.0000</r>
       <r>  -0.5567  1.0000</r>
       <r>  -0.5567  1.0000</r>
       <r>  -0.5059  1.0000</r>
       <r>  -0.5059  1.0000</r>
       <r>  -0.5059  1.0000</r>
       <r>  -0.5059  1.0000</r>
       <r>  -0.4148  1.0000</r>
       <r>  -0.4147  1.0000</r>
       <r>  -0.4147  1.0000</r>
       <r>  -0.4147  1.0000</r>
       <r>  -0.2936  1.0000</r>
       <r>  -0.2936  1.0000</r>
       <r>  -0.2936  1.0000</r>
       <r>  -0.2935  1.0000</r>
       <r>  -0.2763  1.0000</r>
       <r>  -0.2762  1.0000</r>
       <r>  -0.2762  1.0000</r>
       <r>  -0.2762  1.0000</r>
       <r>  -0.2603  1.0000</r>
       <r>  -0.2603  1.0000</r>
       <r>  -0.1304  1.0000</r>
       <r>  -0.1304  1.0000</r>
       <r>  -0.1304  1.0000</r>
       <r>  -0.1304  1.0000</r>
       <r>  -0.1080  1.0000</r>
       <r>  -0.1080  1.0000</r>
       <r>   0.2591  1.0000</r>
       <r>   0.2591  1.0000</r>
       <r>   0.2591  1.0000</r>
       <r>   0.2591  1.0000</r>
       <r>   0.3083  1.0000</r>
       <r>   0.4042  1.0000</r>
       <r>   0.4042  1.0000</r>
       <r>   0.4467  1.0000</r>
       <r>   0.4469  1.0000</r>
       <r>   0.4469  1.0000</r>
       <r>   0.4469  1.0000</r>
       <r>   0.4470  1.0000</r>
       <r>   0.4569  1.0000</r>
       <r>   0.4569  1.0000</r>
       <r>   0.4569  1.0000</r>
       <r>   0.4569  1.0000</r>
       <r>   0.4764  1.0000</r>
       <r>   0.4764  1.0000</r>
       <r>   0.4764  1.0000</r>
       <r>   0.4764  1.0000</r>
       <r>   0.5353  1.0000</r>
       <r>   0.5353  1.0000</r>
       <r>   0.5353  1.0000</r>
       <r>   0.5353  1.0000</r>
       <r>   0.5856  1.0000</r>
       <r>   0.5857  1.0000</r>
       <r>   0.5859  1.0000</r>
       <r>   0.5859  1.0000</r>
       <r>   0.5880  1.0000</r>
       <r>   0.5880  1.0000</r>
       <r>   0.5882  1.0000</r>
       <r>   0.5883  1.0000</r>
       <r>   0.6962  1.0000</r>
       <r>   0.7325  1.0000</r>
       <r>   0.7325  1.0000</r>
       <r>   0.7325  1.0000</r>
       <r>   0.7325  1.0000</r>
       <r>   0.7661  1.0000</r>
       <r>   0.8879  1.0000</r>
       <r>   0.8879  1.0000</r>
       <r>   0.9572  1.0000</r>
       <r>   0.9572  1.0000</r>
       <r>   1.0529  1.0000</r>
       <r>   1.0529  1.0000</r>
       <r>   1.0529  1.0000</r>
       <r>   1.0529  1.0000</r>
       <r>   1.1304  1.0000</r>
       <r>   1.1304  1.0000</r>
       <r>   1.1307  1.0000</r>
       <r>   1.1307  1.0000</r>
       <r>   1.1308  1.0000</r>
       <r>   1.1308  1.0000</r>
       <r>   1.1654  1.0000</r>
       <r>   1.1654  1.0000</r>
       <r>   1.2334  1.0000</r>
       <r>   1.2335  1.0000</r>
       <r>   1.2335  1.0000</r>
       <r>   1.2335  1.0000</r>
       <r>   1.2481  1.0000</r>
       <r>   1.3245  1.0000</r>
       <r>   1.3583  1.0000</r>
       <r>   1.3583  1.0000</r>
       <r>   1.3583  1.0000</r>
       <r>   1.3583  1.0000</r>
       <r>   1.3704  1.0000</r>
       <r>   1.3704  1.0000</r>
       <r>   1.4001  1.0000</r>
       <r>   1.4001  1.0000</r>
       <r>   1.4001  1.0000</r>
       <r>   1.4001  1.0000</r>
       <r>   1.4930  1.0000</r>
       <r>   1.6645  1.0000</r>
       <r>   1.6650  1.0000</r>
       <r>   1.6653  1.0000</r>
       <r>   1.6657  1.0000</r>
       <r>   1.7607  1.0000</r>
       <r>   1.7607  1.0000</r>
       <r>   1.7607  1.0000</r>
       <r>   1.7607  1.0000</r>
       <r>   2.5378  1.0000</r>
       <r>   2.9341  1.0000</r>
       <r>   2.9341  1.0000</r>
       <r>   2.9341  1.0000</r>
       <r>   2.9341  1.0000</r>
       <r>   3.0062  1.0000</r>
       <r>   3.0062  1.0000</r>
       <r>   3.0062  1.0000</r>
       <r>   3.0063  1.0000</r>
       <r>   4.5476  0.0000</r>
       <r>   4.5476  0.0000</r>
       <r>   4.5476  0.0000</r>
       <r>   4.5476  0.0000</r>
       <r>   5.4173  0.0000</r>
       <r>   5.4173  0.0000</r>
       <r>   5.4173  0.0000</r>
       <r>   5.4173  0.0000</r>
       <r>   6.0179  0.0000</r>
       <r>   6.0179  0.0000</r>
       <r>   6.8079  0.0000</r>
[...]
       <r>  -0.0237  1.0000</r>
       <r>  -0.0236  1.0000</r>
       <r>  -0.0228  1.0000</r>
       <r>  -0.0228  1.0000</r>
       <r>   0.0813  1.0000</r>
       <r>   0.0814  1.0000</r>
       <r>   0.0814  1.0000</r>
       <r>   0.0814  1.0000</r>
       <r>   0.2304  1.0000</r>
       <r>   0.2304  1.0000</r>
       <r>   0.2304  1.0000</r>
       <r>   0.2304  1.0000</r>
       <r>   0.3056  1.0000</r>
       <r>   0.3056  1.0000</r>
       <r>   0.3059  1.0000</r>
       <r>   0.3059  1.0000</r>
       <r>   0.3059  1.0000</r>
       <r>   0.3059  1.0000</r>
       <r>   0.3062  1.0000</r>
       <r>   0.3062  1.0000</r>
       <r>   0.5670  1.0000</r>
       <r>   0.5672  1.0000</r>
       <r>   0.5672  1.0000</r>
       <r>   0.5673  1.0000</r>
       <r>   0.6107  1.0000</r>
       <r>   0.6108  1.0000</r>
       <r>   0.6108  1.0000</r>
       <r>   0.6108  1.0000</r>
       <r>   0.6149  1.0000</r>
       <r>   0.6149  1.0000</r>
       <r>   0.6154  1.0000</r>
       <r>   0.6154  1.0000</r>
       <r>   0.6154  1.0000</r>
       <r>   0.6157  1.0000</r>
       <r>   0.6159  1.0000</r>
       <r>   0.6159  1.0000</r>
       <r>   0.7935  1.0000</r>
       <r>   0.7943  1.0000</r>
       <r>   0.7943  1.0000</r>
       <r>   0.7943  1.0000</r>
       <r>   0.7950  1.0000</r>
       <r>   0.7950  1.0000</r>
       <r>   0.7950  1.0000</r>
       <r>   0.7958  1.0000</r>
       <r>   0.9433  1.0000</r>
       <r>   0.9433  1.0000</r>
       <r>   0.9433  1.0000</r>
       <r>   0.9434  1.0000</r>
       <r>   1.4581  1.0000</r>
       <r>   1.4581  1.0000</r>
       <r>   1.4583  1.0000</r>
       <r>   1.4583  1.0000</r>
       <r>   1.4583  1.0000</r>
       <r>   1.4583  1.0000</r>
       <r>   1.4585  1.0000</r>
       <r>   1.4585  1.0000</r>
       <r>   1.4721  1.0000</r>
       <r>   1.4721  1.0000</r>
       <r>   1.4721  1.0000</r>
       <r>   1.4721  1.0000</r>
       <r>   1.4875  1.0000</r>
       <r>   1.4875  1.0000</r>
       <r>   1.4875  1.0000</r>
       <r>   1.4875  1.0000</r>
       <r>   1.4904  1.0000</r>
       <r>   1.4904  1.0000</r>
       <r>   1.4905  1.0000</r>
       <r>   1.4906  1.0000</r>
       <r>   1.4906  1.0000</r>
       <r>   1.4906  1.0000</r>
       <r>   1.4908  1.0000</r>
       <r>   1.4908  1.0000</r>
       <r>   3.1235  1.0000</r>
       <r>   3.1235  1.0000</r>
       <r>   3.1235  1.0000</r>
       <r>   3.1235  1.0000</r>
       <r>   3.7283  0.0000</r>
       <r>   3.7283  0.0000</r>
       <r>   3.7285  0.0000</r>
       <r>   3.7285  0.0000</r>
       <r>   3.7285  0.0000</r>
       <r>   3.7285  0.0000</r>
       <r>   3.7287  0.0000</r>
       <r>   3.7287  0.0000</r>
       <r>   4.5869  0.0000</r>
       <r>   4.5869  0.0000</r>
       <r>   4.5872  0.0000</r>
       <r>   4.5872  0.0000</r>
       <r>   4.5872  0.0000</r>
       <r>   4.5872  0.0000</r>
       <r>   4.5874  0.0000</r>
       <r>   4.5874  0.0000</r>
       <r>   5.1836  0.0000</r>
       <r>   5.1836  0.0000</r>
       <r>   5.1836  0.0000</r>
       <r>   5.1836  0.0000</r>
       <r>   7.2308  0.0000</r>
       <r>   7.2308  0.0000</r>
       <r>   7.2313  0.0000</r>
       <r>   7.2313  0.0000</r>
       <r>   7.2313  0.0000</r>
       <r>   7.2313  0.0000</r>
       <r>   7.2318  0.0000</r>
       <r>   7.2318  0.0000</r>
       <r>   7.6599  0.0000</r>
       <r>   7.6599  0.0000</r>
       <r>   7.6599  0.0000</r>
       <r>   7.6599  0.0000</r>
       <r>   8.7596  0.0000</r>
       <r>   8.7596  0.0000</r>
       <r>   8.7596  0.0000</r>
       <r>   8.7596  0.0000</r>
       <r>   9.1143  0.0000</r>
       <r>   9.1144  0.0000</r>
       <r>   9.1145  0.0000</r>
       <r>   9.1147  0.0000</r>
      </set>
      <set comment="kpoint 195">
       <r>  -3.0925  1.0000</r>
       <r>  -3.0924  1.0000</r>
       <r>  -3.0924  1.0000</r>
       <r>  -3.0924  1.0000</r>
       <r>  -2.8531  1.0000</r>
       <r>  -2.8531  1.0000</r>
       <r>  -2.8531  1.0000</r>
       <r>  -2.8530  1.0000</r>
       <r>  -1.6755  1.0000</r>
       <r>  -1.6755  1.0000</r>
       <r>  -1.6755  1.0000</r>
       <r>  -1.6755  1.0000</r>
       <r>  -1.6501  1.0000</r>
       <r>  -1.6501  1.0000</r>
       <r>  -1.6498  1.0000</r>
       <r>  -1.6498  1.0000</r>
       <r>  -1.6497  1.0000</r>
       <r>  -1.6497  1.0000</r>
       <r>  -1.6495  1.0000</r>
       <r>  -1.6495  1.0000</r>
       <r>  -1.6317  1.0000</r>
       <r>  -1.6314  1.0000</r>
       <r>  -1.6314  1.0000</r>
       <r>  -1.6308  1.0000</r>
       <r>  -1.6307  1.0000</r>
       <r>  -1.6307  1.0000</r>
       <r>  -1.6304  1.0000</r>
       <r>  -1.6304  1.0000</r>
       <r>  -1.6292  1.0000</r>
       <r>  -1.6289  1.0000</r>
       <r>  -1.6289  1.0000</r>
       <r>  -1.6283  1.0000</r>
       <r>  -1.0443  1.0000</r>
       <r>  -1.0443  1.0000</r>
       <r>  -1.0439  1.0000</r>
       <r>  -1.0439  1.0000</r>
       <r>  -1.0439  1.0000</r>
       <r>  -1.0439  1.0000</r>
       <r>  -1.0434  1.0000</r>
       <r>  -1.0434  1.0000</r>
       <r>  -1.0167  1.0000</r>
       <r>  -1.0166  1.0000</r>
       <r>  -1.0166  1.0000</r>
       <r>  -1.0166  1.0000</r>
       <r>  -0.8740  1.0000</r>
       <r>  -0.8739  1.0000</r>
       <r>  -0.8739  1.0000</r>
       <r>  -0.8738  1.0000</r>
       <r>  -0.8731  1.0000</r>
       <r>  -0.8731  1.0000</r>
       <r>  -0.8727  1.0000</r>
       <r>  -0.8727  1.0000</r>
       <r>  -0.8727  1.0000</r>
       <r>  -0.8725  1.0000</r>
       <r>  -0.8723  1.0000</r>
       <r>  -0.8723  1.0000</r>
       <r>  -0.5061  1.0000</r>
       <r>  -0.5061  1.0000</r>
       <r>  -0.5061  1.0000</r>
       <r>  -0.5060  1.0000</r>
       <r>  -0.3948  1.0000</r>
       <r>  -0.3948  1.0000</r>
       <r>  -0.3948  1.0000</r>
       <r>  -0.3948  1.0000</r>
       <r>  -0.2262  1.0000</r>
       <r>  -0.2262  1.0000</r>
       <r>  -0.2262  1.0000</r>
       <r>  -0.2261  1.0000</r>
       <r>  -0.2227  1.0000</r>
       <r>  -0.2227  1.0000</r>
       <r>  -0.2227  1.0000</r>
       <r>  -0.2226  1.0000</r>
       <r>  -0.2103  1.0000</r>
       <r>  -0.2103  1.0000</r>
       <r>  -0.2099  1.0000</r>
       <r>  -0.2099  1.0000</r>
       <r>  -0.2096  1.0000</r>
       <r>  -0.2096  1.0000</r>
       <r>  -0.2092  1.0000</r>
       <r>  -0.2092  1.0000</r>
       <r>  -0.1788  1.0000</r>
       <r>  -0.1788  1.0000</r>
       <r>  -0.1788  1.0000</r>
       <r>  -0.1788  1.0000</r>
       <r>  -0.1301  1.0000</r>
       <r>  -0.1301  1.0000</r>
       <r>  -0.1287  1.0000</r>
       <r>  -0.1287  1.0000</r>
       <r>  -0.1287  1.0000</r>
       <r>  -0.1287  1.0000</r>
       <r>  -0.1274  1.0000</r>
       <r>  -0.1274  1.0000</r>
       <r>  -0.0564  1.0000</r>
       <r>  -0.0564  1.0000</r>
       <r>  -0.0554  1.0000</r>
       <r>  -0.0554  1.0000</r>
       <r>  -0.0554  1.0000</r>
       <r>  -0.0553  1.0000</r>
       <r>  -0.0543  1.0000</r>
       <r>  -0.0543  1.0000</r>
       <r>  -0.0049  1.0000</r>
       <r>  -0.0049  1.0000</r>
       <r>  -0.0049  1.0000</r>
       <r>  -0.0049  1.0000</r>
       <r>   0.3228  1.0000</r>
       <r>   0.3228  1.0000</r>
       <r>   0.3228  1.0000</r>
       <r>   0.3228  1.0000</r>
       <r>   0.3538  1.0000</r>
       <r>   0.3538  1.0000</r>
       <r>   0.3542  1.0000</r>
       <r>   0.3542  1.0000</r>
       <r>   0.3542  1.0000</r>
       <r>   0.3542  1.0000</r>
       <r>   0.3546  1.0000</r>
       <r>   0.3546  1.0000</r>
       <r>   0.5052  1.0000</r>
       <r>   0.5052  1.0000</r>
       <r>   0.5056  1.0000</r>
       <r>   0.5057  1.0000</r>
       <r>   0.5057  1.0000</r>
       <r>   0.5057  1.0000</r>
       <r>   0.5062  1.0000</r>
       <r>   0.5062  1.0000</r>
       <r>   0.5158  1.0000</r>
       <r>   0.5159  1.0000</r>
       <r>   0.5159  1.0000</r>
       <r>   0.5159  1.0000</r>
       <r>   0.6558  1.0000</r>
       <r>   0.6558  1.0000</r>
       <r>   0.6558  1.0000</r>
       <r>   0.6558  1.0000</r>
       <r>   0.7525  1.0000</r>
       <r>   0.7526  1.0000</r>
       <r>   0.7526  1.0000</r>
       <r>   0.7526  1.0000</r>
       <r>   0.7683  1.0000</r>
       <r>   0.7683  1.0000</r>
       <r>   0.7683  1.0000</r>
       <r>   0.7684  1.0000</r>
       <r>   0.8465  1.0000</r>
       <r>   0.8465  1.0000</r>
       <r>   0.8465  1.0000</r>
       <r>   0.8465  1.0000</r>
       <r>   1.4874  1.0000</r>
       <r>   1.4874  1.0000</r>
       <r>   1.4875  1.0000</r>
       <r>   1.4875  1.0000</r>
       <r>   1.4875  1.0000</r>
       <r>   1.4875  1.0000</r>
       <r>   1.4876  1.0000</r>
       <r>   1.4876  1.0000</r>
       <r>   1.4947  1.0000</r>
       <r>   1.4947  1.0000</r>
       <r>   1.4947  1.0000</r>
       <r>   1.4947  1.0000</r>
       <r>   1.5036  1.0000</r>
       <r>   1.5036  1.0000</r>
       <r>   1.5037  1.0000</r>
       <r>   1.5037  1.0000</r>
       <r>   1.5081  1.0000</r>
       <r>   1.5081  1.0000</r>
       <r>   1.5082  1.0000</r>
       <r>   1.5082  1.0000</r>
       <r>   1.5082  1.0000</r>
       <r>   1.5082  1.0000</r>
       <r>   1.5083  1.0000</r>
       <r>   1.5083  1.0000</r>
       <r>   3.6062  0.0000</r>
       <r>   3.6062  0.0000</r>
       <r>   3.6062  0.0000</r>
       <r>   3.6062  0.0000</r>
       <r>   3.9095  0.0000</r>
       <r>   3.9095  0.0000</r>
       <r>   3.9098  0.0000</r>
       <r>   3.9098  0.0000</r>
       <r>   3.9098  0.0000</r>
       <r>   3.9098  0.0000</r>
       <r>   3.9100  0.0000</r>
       <r>   3.9100  0.0000</r>
       <r>   4.3430  0.0000</r>
       <r>   4.3430  0.0000</r>
       <r>   4.3433  0.0000</r>
       <r>   4.3433  0.0000</r>
       <r>   4.3433  0.0000</r>
       <r>   4.3433  0.0000</r>
       <r>   4.3436  0.0000</r>
       <r>   4.3436  0.0000</r>
       <r>   4.6463  0.0000</r>
       <r>   4.6463  0.0000</r>
       <r>   4.6463  0.0000</r>
       <r>   4.6464  0.0000</r>
       <r>   7.6675  0.0000</r>
       <r>   7.6675  0.0000</r>
       <r>   7.6680  0.0000</r>
       <r>   7.6680  0.0000</r>
       <r>   7.6680  0.0000</r>
       <r>   7.6680  0.0000</r>
       <r>   7.6684  0.0000</r>
       <r>   7.6684  0.0000</r>
       <r>   7.8712  0.0000</r>
       <r>   7.8712  0.0000</r>
       <r>   7.8712  0.0000</r>
       <r>   7.8712  0.0000</r>
       <r>   8.4290  0.0000</r>
       <r>   8.4290  0.0000</r>
       <r>   8.4290  0.0000</r>
       <r>   8.4290  0.0000</r>
       <r>   8.6152  0.0000</r>
       <r>   8.6153  0.0000</r>
       <r>   8.6154  0.0000</r>
       <r>   8.6156  0.0000</r>
      </set>
      <set comment="kpoint 196">
       <r>  -2.9833  1.0000</r>
       <r>  -2.9803  1.0000</r>
       <r>  -2.9803  1.0000</r>
       <r>  -2.9799  1.0000</r>
       <r>  -2.9796  1.0000</r>
       <r>  -2.9792  1.0000</r>
       <r>  -2.9792  1.0000</r>
       <r>  -2.9763  1.0000</r>
       <r>  -1.6467  1.0000</r>
       <r>  -1.6467  1.0000</r>
       <r>  -1.6467  1.0000</r>
       <r>  -1.6466  1.0000</r>
       <r>  -1.6463  1.0000</r>
       <r>  -1.6454  1.0000</r>
       <r>  -1.6448  1.0000</r>
       <r>  -1.6448  1.0000</r>
       <r>  -1.6448  1.0000</r>
       <r>  -1.6448  1.0000</r>
       <r>  -1.6448  1.0000</r>
       <r>  -1.6447  1.0000</r>
       <r>  -1.6446  1.0000</r>
       <r>  -1.6445  1.0000</r>
       <r>  -1.6445  1.0000</r>
       <r>  -1.6445  1.0000</r>
       <r>  -1.6445  1.0000</r>
       <r>  -1.6444  1.0000</r>
       <r>  -1.6439  1.0000</r>
       <r>  -1.6430  1.0000</r>
       <r>  -1.6428  1.0000</r>
       <r>  -1.6426  1.0000</r>
       <r>  -1.6426  1.0000</r>
       <r>  -1.6426  1.0000</r>
       <r>  -0.9552  1.0000</r>
       <r>  -0.9522  1.0000</r>
       <r>  -0.9521  1.0000</r>
       <r>  -0.9519  1.0000</r>
       <r>  -0.9519  1.0000</r>
       <r>  -0.9514  1.0000</r>
       <r>  -0.9510  1.0000</r>
       <r>  -0.9510  1.0000</r>
       <r>  -0.9509  1.0000</r>
       <r>  -0.9508  1.0000</r>
       <r>  -0.9508  1.0000</r>
       <r>  -0.9508  1.0000</r>
       <r>  -0.9508  1.0000</r>
       <r>  -0.9507  1.0000</r>
       <r>  -0.9507  1.0000</r>
       <r>  -0.9507  1.0000</r>
       <r>  -0.9505  1.0000</r>
       <r>  -0.9505  1.0000</r>
       <r>  -0.9502  1.0000</r>
       <r>  -0.9497  1.0000</r>
       <r>  -0.9497  1.0000</r>
       <r>  -0.9495  1.0000</r>
       <r>  -0.9494  1.0000</r>
       <r>  -0.9465  1.0000</r>
       <r>  -0.4460  1.0000</r>
       <r>  -0.4448  1.0000</r>
       <r>  -0.4443  1.0000</r>
       <r>  -0.4443  1.0000</r>
       <r>  -0.4440  1.0000</r>
       <r>  -0.4440  1.0000</r>
       <r>  -0.4435  1.0000</r>
       <r>  -0.4423  1.0000</r>
       <r>  -0.2223  1.0000</r>
       <r>  -0.2223  1.0000</r>
       <r>  -0.2219  1.0000</r>
       <r>  -0.2217  1.0000</r>
       <r>  -0.2212  1.0000</r>
       <r>  -0.2212  1.0000</r>
       <r>  -0.2211  1.0000</r>
       <r>  -0.2211  1.0000</r>
       <r>  -0.2208  1.0000</r>
       <r>  -0.2208  1.0000</r>
       <r>  -0.2208  1.0000</r>
       <r>  -0.2207  1.0000</r>
       <r>  -0.2202  1.0000</r>
       <r>  -0.2201  1.0000</r>
       <r>  -0.2198  1.0000</r>
       <r>  -0.2198  1.0000</r>
       <r>  -0.0974  1.0000</r>
       <r>  -0.0974  1.0000</r>
       <r>  -0.0967  1.0000</r>
       <r>  -0.0961  1.0000</r>
       <r>  -0.0948  1.0000</r>
       <r>  -0.0942  1.0000</r>
       <r>  -0.0942  1.0000</r>
       <r>  -0.0942  1.0000</r>
       <r>  -0.0941  1.0000</r>
       <r>  -0.0941  1.0000</r>
       <r>  -0.0941  1.0000</r>
       <r>  -0.0941  1.0000</r>
       <r>  -0.0940  1.0000</r>
       <r>  -0.0940  1.0000</r>
       <r>  -0.0940  1.0000</r>
       <r>  -0.0940  1.0000</r>
       <r>  -0.0939  1.0000</r>
       <r>  -0.0939  1.0000</r>
       <r>  -0.0939  1.0000</r>
       <r>  -0.0933  1.0000</r>
       <r>  -0.0919  1.0000</r>
       <r>  -0.0914  1.0000</r>
       <r>  -0.0906  1.0000</r>
       <r>  -0.0906  1.0000</r>
       <r>   0.4152  1.0000</r>
       <r>   0.4164  1.0000</r>
       <r>   0.4164  1.0000</r>
       <r>   0.4182  1.0000</r>
       <r>   0.4183  1.0000</r>
       <r>   0.4184  1.0000</r>
       <r>   0.4184  1.0000</r>
       <r>   0.4186  1.0000</r>
       <r>   0.4187  1.0000</r>
       <r>   0.4187  1.0000</r>
       <r>   0.4187  1.0000</r>
       <r>   0.4188  1.0000</r>
       <r>   0.4189  1.0000</r>
       <r>   0.4189  1.0000</r>
       <r>   0.4189  1.0000</r>
       <r>   0.4189  1.0000</r>
       <r>   0.4190  1.0000</r>
       <r>   0.4192  1.0000</r>
       <r>   0.4192  1.0000</r>
       <r>   0.4193  1.0000</r>
       <r>   0.4195  1.0000</r>
       <r>   0.4213  1.0000</r>
       <r>   0.4213  1.0000</r>
       <r>   0.4224  1.0000</r>
       <r>   0.7474  1.0000</r>
       <r>   0.7486  1.0000</r>
       <r>   0.7487  1.0000</r>
       <r>   0.7487  1.0000</r>
       <r>   0.7496  1.0000</r>
       <r>   0.7496  1.0000</r>
       <r>   0.7497  1.0000</r>
       <r>   0.7498  1.0000</r>
       <r>   0.7499  1.0000</r>
       <r>   0.7500  1.0000</r>
       <r>   0.7502  1.0000</r>
       <r>   0.7502  1.0000</r>
       <r>   0.7511  1.0000</r>
       <r>   0.7511  1.0000</r>
       <r>   0.7511  1.0000</r>
       <r>   0.7523  1.0000</r>
       <r>   1.5051  1.0000</r>
       <r>   1.5051  1.0000</r>
       <r>   1.5053  1.0000</r>
       <r>   1.5055  1.0000</r>
       <r>   1.5055  1.0000</r>
       <r>   1.5055  1.0000</r>
       <r>   1.5055  1.0000</r>
       <r>   1.5056  1.0000</r>
       <r>   1.5056  1.0000</r>
       <r>   1.5057  1.0000</r>
       <r>   1.5057  1.0000</r>
       <r>   1.5058  1.0000</r>
       <r>   1.5059  1.0000</r>
       <r>   1.5059  1.0000</r>
       <r>   1.5059  1.0000</r>
       <r>   1.5060  1.0000</r>
       <r>   1.5061  1.0000</r>
       <r>   1.5061  1.0000</r>
       <r>   1.5061  1.0000</r>
       <r>   1.5061  1.0000</r>
       <r>   1.5062  1.0000</r>
       <r>   1.5064  1.0000</r>
       <r>   1.5065  1.0000</r>
       <r>   1.5065  1.0000</r>
       <r>   4.1104  0.0000</r>
       <r>   4.1139  0.0000</r>
       <r>   4.1139  0.0000</r>
       <r>   4.1154  0.0000</r>
       <r>   4.1159  0.0000</r>
       <r>   4.1161  0.0000</r>
       <r>   4.1161  0.0000</r>
       <r>   4.1162  0.0000</r>
       <r>   4.1162  0.0000</r>
       <r>   4.1162  0.0000</r>
       <r>   4.1162  0.0000</r>
       <r>   4.1163  0.0000</r>
       <r>   4.1163  0.0000</r>
       <r>   4.1165  0.0000</r>
       <r>   4.1165  0.0000</r>
       <r>   4.1165  0.0000</r>
       <r>   4.1165  0.0000</r>
       <r>   4.1165  0.0000</r>
       <r>   4.1165  0.0000</r>
       <r>   4.1168  0.0000</r>
       <r>   4.1172  0.0000</r>
       <r>   4.1187  0.0000</r>
       <r>   4.1187  0.0000</r>
       <r>   4.1223  0.0000</r>
       <r>   8.1266  0.0000</r>
       <r>   8.1269  0.0000</r>
       <r>   8.1286  0.0000</r>
       <r>   8.1296  0.0000</r>
       <r>   8.1299  0.0000</r>
       <r>   8.1302  0.0000</r>
       <r>   8.1303  0.0000</r>
       <r>   8.1305  0.0000</r>
       <r>   8.1306  0.0000</r>
       <r>   8.1306  0.0000</r>
       <r>   8.1307  0.0000</r>
       <r>   8.1308  0.0000</r>
       <r>   8.1309  0.0000</r>
       <r>   8.1309  0.0000</r>
       <r>   8.1311  0.0000</r>
       <r>   8.1313  0.0000</r>
       <r>   8.1315  0.0000</r>
       <r>   8.1324  0.0000</r>
       <r>   8.1333  0.0000</r>
       <r>   8.1338  0.0000</r>
      </set>
     </set>
    </set>
   </array>
  </eigenvalues>
 </calculation>
 <structure name="finalpos" >
  <crystal>
   <varray name="basis" >
    <v>       8.76298899      0.00000000      0.00000000</v>
    <v>       0.00000000      8.76298899      0.00000000</v>
    <v>       0.00000000      0.00000000      8.76298899</v>
   </varray>
   <i name="volume">    672.90971569</i>
   <varray name="rec_basis" >
    <v>       0.11411631      0.00000000      0.00000000</v>
    <v>       0.00000000      0.11411631      0.00000000</v>
    <v>       0.00000000      0.00000000      0.11411631</v>
   </varray>
  </crystal>
  <varray name="positions" >
   <v>       0.00114116      0.00000000      0.00000000</v>
   <v>       0.50000000      0.00000000      0.00000000</v>
   <v>       0.00000000      0.50000000      0.00000000</v>
   <v>       0.50000000      0.50000000      0.00000000</v>
   <v>       0.00000000      0.00000000      0.50000000</v>
   <v>       0.50000000      0.00000000      0.50000000</v>
   <v>       0.00000000      0.50000000      0.50000000</v>
   <v>       0.50000000      0.50000000      0.50000000</v>
   <v>       0.25000000      0.25000000      0.00000000</v>
   <v>       0.75000000      0.25000000      0.00000000</v>
   <v>       0.25000000      0.75000000      0.00000000</v>
   <v>       0.75000000      0.75000000      0.00000000</v>
   <v>       0.25000000      0.25000000      0.50000000</v>
   <v>       0.75000000      0.25000000      0.50000000</v>
   <v>       0.25000000      0.75000000      0.50000000</v>
   <v>       0.75000000      0.75000000      0.50000000</v>
   <v>       0.25000000      0.00000000      0.25000000</v>
   <v>       0.75000000      0.00000000      0.25000000</v>
   <v>       0.25000000      0.50000000      0.25000000</v>
   <v>       0.75000000      0.50000000      0.25000000</v>
   <v>       0.25000000      0.00000000      0.75000000</v>
   <v>       0.75000000      0.00000000      0.75000000</v>
   <v>       0.25000000      0.50000000      0.75000000</v>
   <v>       0.75000000      0.50000000      0.75000000</v>
   <v>       0.00000000      0.25000000      0.25000000</v>
   <v>       0.50000000      0.25000000      0.25000000</v>
   <v>       0.00000000      0.75000000      0.25000000</v>
   <v>       0.50000000      0.75000000      0.25000000</v>
   <v>       0.00000000      0.25000000      0.75000000</v>
   <v>       0.50000000      0.25000000      0.75000000</v>
   <v>       0.00000000      0.75000000      0.75000000</v>
   <v>       0.50000000      0.75000000      0.75000000</v>
  </varray>
 </structure>
</modeling>
