 running on    8 nodes
 distr:  one band on    1 nodes,    8 groups
 vasp.4.6.28 25Jul05 complex 
 POSCAR found :  1 types and   32 ions

 ----------------------------------------------------------------------------- 
|                                                                             |
|  ADVICE TO THIS USER RUNNING 'VASP/VAMP'   (HEAR YOUR MASTER'S VOICE ...):  |
|                                                                             |
|      You have a (more or less) 'large supercell' and for larger cells       |
|      it might be more efficient to use real space projection operators      |
|      So try LREAL= Auto  in the INCAR   file.                               |
|      Mind: If you want to do an extremely accurate calculations keep the    |
|      reciprocal projection scheme          (i.e. LREAL=.FALSE.)             |
|                                                                             |
 ----------------------------------------------------------------------------- 

 LDA part: xc-table for Pade appr. of Perdew
 POSCAR, INCAR and KPOINTS ok, starting setup
 FFT: planning ...           1
 reading WAVECAR
 WARNING: random wavefunctions but no delay for mixing, default for NELMDL
 entering main loop
       N       E                     dE             d eps       ncg     rms          rms(c)
DAV:   1     0.431426174966E+04    0.43143E+04   -0.20160E+05 84672   0.210E+03
DAV:   2     0.168022503039E+03   -0.41462E+04   -0.39458E+04 84704   0.521E+02
DAV:   3    -0.911244153937E+02   -0.25915E+03   -0.23355E+03 95168   0.132E+02
DAV:   4    -0.101129768547E+03   -0.10005E+02   -0.98347E+01 90304   0.255E+01
DAV:   5    -0.101317316914E+03   -0.18755E+00   -0.18705E+00 91216   0.315E+00    0.138E+01
DAV:   6    -0.951987463646E+02    0.61186E+01   -0.20384E+01 89024   0.149E+01    0.326E+00
DAV:   7    -0.950721164563E+02    0.12663E+00   -0.71060E-01 93432   0.206E+00    0.181E+00
DAV:   8    -0.950480380325E+02    0.24078E-01   -0.51121E-02 88600   0.828E-01    0.143E-01
DAV:   9    -0.950485693529E+02   -0.53132E-03   -0.41457E-03 93912   0.189E-01    0.807E-02
DAV:  10    -0.950486828232E+02   -0.11347E-03   -0.50724E-04 87992   0.633E-02    0.130E-02
DAV:  11    -0.950486910505E+02   -0.82272E-05   -0.16126E-05 93816   0.126E-02    0.288E-03
DAV:  12    -0.950486926867E+02   -0.16363E-05   -0.10084E-06 88496   0.335E-03    0.158E-03
DAV:  13    -0.950486912429E+02    0.14438E-05   -0.11118E-07 88240   0.115E-03    0.346E-04
DAV:  14    -0.950486910930E+02    0.14991E-06   -0.60256E-09 47816   0.327E-04    0.742E-05
DAV:  15    -0.950486911497E+02   -0.56756E-07   -0.10794E-09 46904   0.114E-04    0.445E-05
DAV:  16    -0.950486911398E+02    0.98917E-08   -0.91344E-11 46448   0.565E-05
   1 F= -.95048691E+02 E0= -.95048384E+02  d E =-.613715E-03
