  32  32   0   0
  0.2288285E+02  0.9013360E-09  0.9013360E-09  0.9013360E-09  0.5000000E-15
  1.000000000000000E-004
  CAR 
 unknown system                          
     10.62063842     -5.33633612  301      2.53633698      1.00000000
     -5.336  0.0000E+00  0.0000E+00
     -5.283  0.0000E+00  0.0000E+00
     -5.230  0.0000E+00  0.0000E+00
     -5.177  0.0000E+00  0.0000E+00
     -5.124  0.0000E+00  0.0000E+00
     -5.070  0.0000E+00  0.0000E+00
     -5.017  0.0000E+00  0.0000E+00
     -4.964  0.0000E+00  0.0000E+00
     -4.911  0.0000E+00  0.0000E+00
     -4.858  0.0000E+00  0.0000E+00
     -4.804  0.0000E+00  0.0000E+00
     -4.751  0.0000E+00  0.0000E+00
     -4.698  0.0000E+00  0.0000E+00
     -4.645  0.1843E-07  0.9805E-09
     -4.592  0.1246E+00  0.6630E-02
     -4.538  0.6942E+00  0.4356E-01
     -4.485  0.1102E+01  0.1022E+00
     -4.432  0.1754E+01  0.1955E+00
     -4.379  0.1770E+01  0.2896E+00
     -4.326  0.1907E+01  0.3911E+00
     -4.273  0.2418E+01  0.5197E+00
     -4.219  0.1545E+01  0.6019E+00
     -4.166  0.3085E+01  0.7660E+00
     -4.113  0.2189E+01  0.8824E+00
     -4.060  0.3377E+01  0.1062E+01
     -4.007  0.2420E+01  0.1191E+01
     -3.953  0.4068E+01  0.1407E+01
     -3.900  0.3142E+01  0.1574E+01
     -3.847  0.3388E+01  0.1754E+01
     -3.794  0.4676E+01  0.2003E+01
     -3.741  0.3172E+01  0.2172E+01
     -3.687  0.4482E+01  0.2410E+01
     -3.634  0.3949E+01  0.2620E+01
     -3.581  0.5244E+01  0.2899E+01
     -3.528  0.3790E+01  0.3101E+01
     -3.475  0.5663E+01  0.3402E+01
     -3.421  0.4237E+01  0.3627E+01
     -3.368  0.5084E+01  0.3898E+01
     -3.315  0.6193E+01  0.4227E+01
     -3.262  0.6022E+01  0.4548E+01
     -3.209  0.4599E+01  0.4792E+01
     -3.156  0.7935E+01  0.5214E+01
     -3.102  0.6526E+01  0.5561E+01
     -3.049  0.6356E+01  0.5899E+01
     -2.996  0.6761E+01  0.6259E+01
     -2.943  0.9207E+01  0.6749E+01
     -2.890  0.6190E+01  0.7078E+01
     -2.836  0.1013E+02  0.7617E+01
     -2.783  0.1082E+02  0.8192E+01
     -2.730  0.9268E+01  0.8685E+01
     -2.677  0.1196E+02  0.9321E+01
     -2.624  0.1582E+02  0.1016E+02
     -2.570  0.1410E+02  0.1091E+02
     -2.517  0.2920E+02  0.1247E+02
     -2.464  0.2850E+02  0.1398E+02
     -2.411  0.3068E+02  0.1561E+02
     -2.358  0.2763E+02  0.1708E+02
     -2.305  0.2925E+02  0.1864E+02
     -2.251  0.4171E+02  0.2086E+02
     -2.198  0.5240E+02  0.2365E+02
     -2.145  0.5653E+02  0.2665E+02
     -2.092  0.7181E+02  0.3047E+02
     -2.039  0.8132E+02  0.3480E+02
     -1.985  0.9165E+02  0.3967E+02
     -1.932  0.9425E+02  0.4469E+02
     -1.879  0.8594E+02  0.4926E+02
     -1.826  0.9321E+02  0.5421E+02
     -1.773  0.7937E+02  0.5844E+02
     -1.719  0.8028E+02  0.6271E+02
     -1.666  0.8058E+02  0.6699E+02
     -1.613  0.6891E+02  0.7066E+02
     -1.560  0.7898E+02  0.7486E+02
     -1.507  0.6273E+02  0.7820E+02
     -1.453  0.5639E+02  0.8119E+02
     -1.400  0.6095E+02  0.8444E+02
     -1.347  0.7696E+02  0.8853E+02
     -1.294  0.8576E+02  0.9309E+02
     -1.241  0.1019E+03  0.9851E+02
     -1.188  0.1104E+03  0.1044E+03
     -1.134  0.1165E+03  0.1106E+03
     -1.081  0.1119E+03  0.1165E+03
     -1.028  0.1041E+03  0.1221E+03
     -0.975  0.1013E+03  0.1275E+03
     -0.922  0.1107E+03  0.1333E+03
     -0.868  0.1117E+03  0.1393E+03
     -0.815  0.1301E+03  0.1462E+03
     -0.762  0.1495E+03  0.1542E+03
     -0.709  0.1883E+03  0.1642E+03
     -0.656  0.1629E+03  0.1728E+03
     -0.602  0.1382E+03  0.1802E+03
     -0.549  0.1048E+03  0.1858E+03
     -0.496  0.9218E+02  0.1907E+03
     -0.443  0.8683E+02  0.1953E+03
     -0.390  0.9251E+02  0.2002E+03
     -0.336  0.8644E+02  0.2048E+03
     -0.283  0.9025E+02  0.2096E+03
     -0.230  0.1065E+03  0.2153E+03
     -0.177  0.1093E+03  0.2211E+03
     -0.124  0.1111E+03  0.2270E+03
     -0.071  0.1097E+03  0.2328E+03
     -0.017  0.1339E+03  0.2400E+03
      0.036  0.1141E+03  0.2460E+03
      0.089  0.1079E+03  0.2518E+03
      0.142  0.9699E+02  0.2569E+03
      0.195  0.9674E+02  0.2621E+03
      0.249  0.9024E+02  0.2669E+03
      0.302  0.8862E+02  0.2716E+03
      0.355  0.9933E+02  0.2769E+03
      0.408  0.8736E+02  0.2815E+03
      0.461  0.1040E+03  0.2870E+03
      0.515  0.1002E+03  0.2924E+03
      0.568  0.1232E+03  0.2989E+03
      0.621  0.1444E+03  0.3066E+03
      0.674  0.1782E+03  0.3161E+03
      0.727  0.1481E+03  0.3240E+03
      0.781  0.8778E+02  0.3286E+03
      0.834  0.7749E+02  0.3327E+03
      0.887  0.3739E+02  0.3347E+03
      0.940  0.5639E+01  0.3350E+03
      0.993  0.1715E+02  0.3360E+03
      1.046  0.1026E+02  0.3365E+03
      1.100  0.9073E+01  0.3370E+03
      1.153  0.1070E+02  0.3375E+03
      1.206  0.1508E+02  0.3383E+03
      1.259  0.8145E+01  0.3388E+03
      1.312  0.7235E+01  0.3392E+03
      1.366  0.1557E+02  0.3400E+03
      1.419  0.1111E+02  0.3406E+03
      1.472  0.8608E+01  0.3410E+03
      1.525  0.6521E+01  0.3414E+03
      1.578  0.1422E+02  0.3421E+03
      1.632  0.1157E+02  0.3428E+03
      1.685  0.1125E+02  0.3434E+03
      1.738  0.6896E+01  0.3437E+03
      1.791  0.9302E+01  0.3442E+03
      1.844  0.1217E+02  0.3449E+03
      1.897  0.1223E+02  0.3455E+03
      1.951  0.9419E+01  0.3460E+03
      2.004  0.7740E+01  0.3464E+03
      2.057  0.1078E+02  0.3470E+03
      2.110  0.1172E+02  0.3476E+03
      2.163  0.1333E+02  0.3483E+03
      2.217  0.7389E+01  0.3487E+03
      2.270  0.7350E+01  0.3491E+03
      2.323  0.1376E+02  0.3499E+03
      2.376  0.9622E+01  0.3504E+03
      2.429  0.1128E+02  0.3510E+03
      2.483  0.8850E+01  0.3514E+03
      2.536  0.1042E+02  0.3520E+03
      2.589  0.1177E+02  0.3526E+03
      2.642  0.1286E+02  0.3533E+03
      2.695  0.9398E+01  0.3538E+03
      2.749  0.1036E+02  0.3544E+03
      2.802  0.9935E+01  0.3549E+03
      2.855  0.1014E+02  0.3554E+03
      2.908  0.1346E+02  0.3561E+03
      2.961  0.1103E+02  0.3567E+03
      3.014  0.8665E+01  0.3572E+03
      3.068  0.1230E+02  0.3578E+03
      3.121  0.1158E+02  0.3585E+03
      3.174  0.9951E+01  0.3590E+03
      3.227  0.1134E+02  0.3596E+03
      3.280  0.1122E+02  0.3602E+03
      3.334  0.9876E+01  0.3607E+03
      3.387  0.1317E+02  0.3614E+03
      3.440  0.8126E+01  0.3618E+03
      3.493  0.1015E+02  0.3624E+03
      3.546  0.1383E+02  0.3631E+03
      3.600  0.8828E+01  0.3636E+03
      3.653  0.1168E+02  0.3642E+03
      3.706  0.1002E+02  0.3647E+03
      3.759  0.8240E+01  0.3652E+03
      3.812  0.1346E+02  0.3659E+03
      3.866  0.1387E+02  0.3666E+03
      3.919  0.8891E+01  0.3671E+03
      3.972  0.1169E+02  0.3677E+03
      4.025  0.6147E+01  0.3681E+03
      4.078  0.1469E+02  0.3688E+03
      4.131  0.8944E+01  0.3693E+03
      4.185  0.1399E+02  0.3701E+03
      4.238  0.9686E+01  0.3706E+03
      4.291  0.1213E+02  0.3712E+03
      4.344  0.1351E+02  0.3719E+03
      4.397  0.1571E+02  0.3728E+03
      4.451  0.1731E+02  0.3737E+03
      4.504  0.1639E+02  0.3746E+03
      4.557  0.1498E+02  0.3754E+03
      4.610  0.1272E+02  0.3760E+03
      4.663  0.1487E+02  0.3768E+03
      4.717  0.1594E+02  0.3777E+03
      4.770  0.1394E+02  0.3784E+03
      4.823  0.1111E+02  0.3790E+03
      4.876  0.1446E+02  0.3798E+03
      4.929  0.1079E+02  0.3804E+03
      4.983  0.1410E+02  0.3811E+03
      5.036  0.1046E+02  0.3817E+03
      5.089  0.1428E+02  0.3824E+03
      5.142  0.9819E+01  0.3829E+03
      5.195  0.1093E+02  0.3835E+03
      5.248  0.1381E+02  0.3843E+03
      5.302  0.8124E+01  0.3847E+03
      5.355  0.1179E+02  0.3853E+03
      5.408  0.9114E+01  0.3858E+03
      5.461  0.1171E+02  0.3864E+03
      5.514  0.1262E+02  0.3871E+03
      5.568  0.6701E+01  0.3875E+03
      5.621  0.1004E+02  0.3880E+03
      5.674  0.8395E+01  0.3884E+03
      5.727  0.9438E+01  0.3889E+03
      5.780  0.9702E+01  0.3894E+03
      5.834  0.8732E+01  0.3899E+03
      5.887  0.8775E+01  0.3904E+03
      5.940  0.5815E+01  0.3907E+03
      5.993  0.7818E+01  0.3911E+03
      6.046  0.9327E+01  0.3916E+03
      6.099  0.9127E+01  0.3921E+03
      6.153  0.7502E+01  0.3925E+03
      6.206  0.8408E+01  0.3929E+03
      6.259  0.1152E+02  0.3935E+03
      6.312  0.6778E+01  0.3939E+03
      6.365  0.1134E+02  0.3945E+03
      6.419  0.1038E+02  0.3951E+03
      6.472  0.1385E+02  0.3958E+03
      6.525  0.1634E+02  0.3967E+03
      6.578  0.1794E+02  0.3976E+03
      6.631  0.1388E+02  0.3984E+03
      6.685  0.1031E+02  0.3989E+03
      6.738  0.1374E+02  0.3996E+03
      6.791  0.1552E+02  0.4005E+03
      6.844  0.7872E+01  0.4009E+03
      6.897  0.1193E+02  0.4015E+03
      6.951  0.1259E+02  0.4022E+03
      7.004  0.1566E+02  0.4030E+03
      7.057  0.1612E+02  0.4039E+03
      7.110  0.1734E+02  0.4048E+03
      7.163  0.1830E+02  0.4058E+03
      7.216  0.8590E+01  0.4062E+03
      7.270  0.1713E+02  0.4071E+03
      7.323  0.1271E+02  0.4078E+03
      7.376  0.1033E+02  0.4084E+03
      7.429  0.1357E+02  0.4091E+03
      7.482  0.5351E+01  0.4094E+03
      7.536  0.1166E+02  0.4100E+03
      7.589  0.1268E+02  0.4107E+03
      7.642  0.1556E+02  0.4115E+03
      7.695  0.1664E+02  0.4124E+03
      7.748  0.1264E+02  0.4131E+03
      7.802  0.1293E+02  0.4137E+03
      7.855  0.1340E+02  0.4145E+03
      7.908  0.7720E+01  0.4149E+03
      7.961  0.7855E+01  0.4153E+03
      8.014  0.1125E+02  0.4159E+03
      8.068  0.1321E+02  0.4166E+03
      8.121  0.6575E+01  0.4169E+03
      8.174  0.9712E+01  0.4175E+03
      8.227  0.1091E+02  0.4180E+03
      8.280  0.1596E+02  0.4189E+03
      8.333  0.1004E+02  0.4194E+03
      8.387  0.9154E+01  0.4199E+03
      8.440  0.1119E+02  0.4205E+03
      8.493  0.1458E+02  0.4213E+03
      8.546  0.1272E+02  0.4219E+03
      8.599  0.1103E+02  0.4225E+03
      8.653  0.1082E+02  0.4231E+03
      8.706  0.1395E+02  0.4239E+03
      8.759  0.1534E+02  0.4247E+03
      8.812  0.1385E+02  0.4254E+03
      8.865  0.1188E+02  0.4260E+03
      8.919  0.8789E+01  0.4265E+03
      8.972  0.1215E+02  0.4271E+03
      9.025  0.9846E+01  0.4277E+03
      9.078  0.1180E+02  0.4283E+03
      9.131  0.6482E+01  0.4286E+03
      9.185  0.9303E+01  0.4291E+03
      9.238  0.1220E+02  0.4298E+03
      9.291  0.1149E+02  0.4304E+03
      9.344  0.7487E+01  0.4308E+03
      9.397  0.3520E+01  0.4310E+03
      9.450  0.3428E+01  0.4312E+03
      9.504  0.4430E+01  0.4314E+03
      9.557  0.2439E+01  0.4315E+03
      9.610  0.1545E+01  0.4316E+03
      9.663  0.1527E+01  0.4317E+03
      9.716  0.9332E+00  0.4317E+03
      9.770  0.1114E+01  0.4318E+03
      9.823  0.2216E+01  0.4319E+03
      9.876  0.9070E+00  0.4320E+03
      9.929  0.5203E+00  0.4320E+03
      9.982  0.0000E+00  0.4320E+03
     10.036  0.0000E+00  0.4320E+03
     10.089  0.0000E+00  0.4320E+03
     10.142  0.0000E+00  0.4320E+03
     10.195  0.0000E+00  0.4320E+03
     10.248  0.0000E+00  0.4320E+03
     10.301  0.0000E+00  0.4320E+03
     10.355  0.0000E+00  0.4320E+03
     10.408  0.0000E+00  0.4320E+03
     10.461  0.0000E+00  0.4320E+03
     10.514  0.0000E+00  0.4320E+03
     10.567  0.0000E+00  0.4320E+03
     10.621  0.0000E+00  0.4320E+03
