   32   32    1    1
  0.2288285E+02  0.9013360E-09  0.9013360E-09  0.9013360E-09  0.5000000E-15
  1.000000000000000E-004
  CAR 
 unknown system                          
  352  196  216
 
  0.0000000E+00  0.0000000E+00  0.0000000E+00  0.5787037E-03
   1       -4.6110
   2       -2.6959
   3       -2.6933
   4       -2.6932
   5       -2.6932
   6       -2.6932
   7       -2.6906
   8       -2.5719
   9       -2.5719
  10       -2.5719
  11       -2.5718
  12       -2.3299
  13       -2.3299
  14       -2.3299
  15       -2.1568
  16       -2.1568
  17       -2.1568
  18       -1.7329
  19       -1.7318
  20       -1.7318
  21       -1.7306
  22       -1.7304
  23       -1.7304
  24       -1.7304
  25       -1.7304
  26       -1.7302
  27       -1.7290
  28       -1.7290
  29       -1.7278
  30       -1.6020
  31       -1.6006
  32       -1.6006
  33       -1.6006
  34       -1.6006
  35       -1.5992
  36       -1.5764
  37       -1.5750
  38       -1.5750
  39       -1.5750
  40       -1.5750
  41       -1.5736
  42       -1.1837
  43       -1.1820
  44       -1.1820
  45       -1.1812
  46       -1.1812
  47       -1.1812
  48       -1.1812
  49       -1.1812
  50       -1.1811
  51       -1.1804
  52       -1.1804
  53       -1.1787
  54       -1.1325
  55       -1.1325
  56       -1.1309
  57       -1.1309
  58       -1.1309
  59       -1.1309
  60       -1.1309
  61       -1.1309
  62       -1.1309
  63       -1.1308
  64       -1.1292
  65       -1.1292
  66       -0.9306
  67       -0.9303
  68       -0.9303
  69       -0.9303
  70       -0.9302
  71       -0.9302
  72       -0.9302
  73       -0.9302
  74       -0.9251
  75       -0.9230
  76       -0.9229
  77       -0.9229
  78       -0.9227
  79       -0.9227
  80       -0.9227
  81       -0.9227
  82       -0.9225
  83       -0.9225
  84       -0.9224
  85       -0.9200
  86       -0.9199
  87       -0.9199
  88       -0.9199
  89       -0.4178
  90       -0.4165
  91       -0.4164
  92       -0.4164
  93       -0.4164
  94       -0.4151
  95       -0.3444
  96       -0.3438
  97       -0.3431
  98       -0.3431
  99       -0.3427
 100       -0.3427
 101       -0.3427
 102       -0.3427
 103       -0.3423
 104       -0.3423
 105       -0.3415
 106       -0.3410
 107       -0.1637
 108       -0.1637
 109       -0.1620
 110       -0.1620
 111       -0.1618
 112       -0.1618
 113       -0.1618
 114       -0.1618
 115       -0.1617
 116       -0.1617
 117       -0.1601
 118       -0.1601
 119       -0.0611
 120       -0.0599
 121       -0.0599
 122       -0.0599
 123       -0.0599
 124       -0.0588
 125       -0.0278
 126       -0.0278
 127       -0.0102
 128       -0.0102
 129       -0.0086
 130       -0.0084
 131       -0.0083
 132       -0.0083
 133       -0.0083
 134       -0.0082
 135       -0.0082
 136       -0.0080
 137       -0.0063
 138       -0.0063
 139        0.3011
 140        0.3020
 141        0.3020
 142        0.3020
 143        0.3020
 144        0.3028
 145        0.6514
 146        0.6514
 147        0.6514
 148        0.6829
 149        0.6829
 150        0.6829
 151        0.6829
 152        0.6829
 153        0.6829
 154        0.6829
 155        0.6829
 156        0.8694
 157        0.8697
 158        0.8697
 159        0.8697
 160        0.8697
 161        0.8697
 162        0.8705
 163        0.8706
 164        0.8706
 165        0.8706
 166        0.8706
 167        0.8708
 168        2.0198
 169        2.0209
 170        2.0209
 171        2.0214
 172        2.0218
 173        2.0218
 174        2.0218
 175        2.0218
 176        2.0222
 177        2.0227
 178        2.0227
 179        2.0238
 180        2.7858
 181        2.7859
 182        2.7859
 183        2.7859
 184        4.2983
 185        4.2985
 186        4.2985
 187        4.3106
 188        4.3106
 189        4.3106
 190        4.3108
 191        5.8735
 192        5.8736
 193        5.8736
 194        5.8736
 195        5.8736
 196        5.8737
 197        6.3271
 198        6.3271
 199        6.3271
 200        8.0167
 201        8.0167
 202        8.0194
 203        8.0194
 204        8.0197
 205        8.0197
 206        8.0197
 207        8.0197
 208        8.0200
 209        8.0200
 210        8.0226
 211        8.0226
 212        9.5872
 213        9.5874
 214        9.5880
 215        9.5886
 216        9.5889
 
  0.8333333E-01  0.0000000E+00  0.0000000E+00  0.1157407E-02
   1       -4.5954
   2       -2.9261
   3       -2.6821
   4       -2.6821
   5       -2.6821
   6       -2.6821
   7       -2.5640
   8       -2.5640
   9       -2.5640
  10       -2.5640
  11       -2.4935
  12       -2.3255
  13       -2.3207
  14       -2.3207
  15       -2.1520
  16       -2.1495
  17       -2.1495
  18       -1.8022
  19       -1.8021
  20       -1.8021
  21       -1.8021
  22       -1.7710
  23       -1.7710
  24       -1.7710
  25       -1.7710
  26       -1.6701
  27       -1.6701
  28       -1.6701
  29       -1.6701
  30       -1.6547
  31       -1.6193
  32       -1.6193
  33       -1.5947
  34       -1.5947
  35       -1.5947
  36       -1.5947
  37       -1.5708
  38       -1.5708
  39       -1.5708
  40       -1.5708
  41       -1.4941
  42       -1.2915
  43       -1.2915
  44       -1.2152
  45       -1.2152
  46       -1.2152
  47       -1.2151
  48       -1.1561
  49       -1.1548
  50       -1.1548
  51       -1.1548
  52       -1.1544
  53       -1.1544
  54       -1.1544
  55       -1.1532
  56       -1.1378
  57       -1.1378
  58       -1.1378
  59       -1.1378
  60       -1.1302
  61       -1.1302
  62       -1.1302
  63       -1.1300
  64       -0.9584
  65       -0.9584
  66       -0.9556
  67       -0.9555
  68       -0.9554
  69       -0.9554
  70       -0.9327
  71       -0.9327
  72       -0.9327
  73       -0.9327
  74       -0.9258
  75       -0.9245
  76       -0.9244
  77       -0.9244
  78       -0.9244
  79       -0.9164
  80       -0.9163
  81       -0.9163
  82       -0.9163
  83       -0.9141
  84       -0.9141
  85       -0.8938
  86       -0.8938
  87       -0.8938
  88       -0.8937
  89       -0.4596
  90       -0.4596
  91       -0.4596
  92       -0.4596
  93       -0.4486
  94       -0.3707
  95       -0.3706
  96       -0.3706
  97       -0.3706
  98       -0.3415
  99       -0.3413
 100       -0.3413
 101       -0.3413
 102       -0.3202
 103       -0.3085
 104       -0.3085
 105       -0.3085
 106       -0.3084
 107       -0.2725
 108       -0.2725
 109       -0.1623
 110       -0.1623
 111       -0.1622
 112       -0.1622
 113       -0.1236
 114       -0.1236
 115       -0.1236
 116       -0.1235
 117       -0.0610
 118       -0.0610
 119       -0.0607
 120       -0.0607
 121       -0.0573
 122       -0.0572
 123       -0.0571
 124       -0.0571
 125       -0.0466
 126       -0.0466
 127       -0.0412
 128       -0.0411
 129       -0.0340
 130       -0.0250
 131        0.0213
 132        0.0214
 133        0.0214
 134        0.0214
 135        0.0572
 136        0.0572
 137        0.0572
 138        0.0572
 139        0.2579
 140        0.3107
 141        0.3107
 142        0.3107
 143        0.3107
 144        0.3464
 145        0.6428
 146        0.6429
 147        0.6483
 148        0.6583
 149        0.6583
 150        0.6583
 151        0.6583
 152        0.6753
 153        0.6753
 154        0.6753
 155        0.6753
 156        0.8371
 157        0.8371
 158        0.8588
 159        0.8588
 160        0.8588
 161        0.8588
 162        0.8590
 163        0.8590
 164        0.8695
 165        0.8697
 166        0.8705
 167        0.8708
 168        1.7837
 169        1.7837
 170        1.7837
 171        1.7837
 172        2.0254
 173        2.0254
 174        2.0254
 175        2.0254
 176        2.2832
 177        2.2832
 178        2.2833
 179        2.2833
 180        2.7338
 181        2.7338
 182        2.7338
 183        2.7338
 184        4.0758
 185        4.3439
 186        4.3439
 187        4.4098
 188        4.4098
 189        4.4098
 190        4.4099
 191        5.7885
 192        5.7885
 193        5.7885
 194        5.7885
 195        5.8812
 196        5.8812
 197        6.3194
 198        6.3194
 199        6.5780
 200        7.5910
 201        7.5910
 202        8.0240
 203        8.0240
 204        8.0241
 205        8.0241
 206        8.0457
 207        8.0457
 208        8.0457
 209        8.0457
 210        8.4498
 211        8.4498
 212        9.3020
 213        9.3031
 214        9.3048
 215        9.3086
 216        9.3101
 
  0.1666667E+00  0.0000000E+00  0.0000000E+00  0.1157407E-02
   1       -4.5484
   2       -3.1728
   3       -2.6490
   4       -2.6490
   5       -2.6490
   6       -2.6490
   7       -2.5405
   8       -2.5405
   9       -2.5405
  10       -2.5405
  11       -2.3443
  12       -2.3126
  13       -2.2935
  14       -2.2935
  15       -2.1379
  16       -2.1278
  17       -2.1278
  18       -1.8882
  19       -1.8882
  20       -1.8882
  21       -1.8882
  22       -1.8660
  23       -1.8660
  24       -1.8659
  25       -1.8659
  26       -1.7318
  27       -1.6716
  28       -1.6716
  29       -1.6176
  30       -1.6176
  31       -1.6176
  32       -1.6176
  33       -1.5778
  34       -1.5778
  35       -1.5778
  36       -1.5778
  37       -1.5585
  38       -1.5585
  39       -1.5584
  40       -1.5584
  41       -1.4395
  42       -1.4395
  43       -1.4133
  44       -1.2553
  45       -1.2553
  46       -1.2553
  47       -1.2553
  48       -1.1572
  49       -1.1572
  50       -1.1572
  51       -1.1572
  52       -1.1354
  53       -1.1351
  54       -1.1351
  55       -1.1350
  56       -1.1282
  57       -1.1281
  58       -1.1281
  59       -1.1279
  60       -1.1094
  61       -1.1094
  62       -1.1094
  63       -1.1093
  64       -1.0106
  65       -1.0106
  66       -1.0106
  67       -1.0106
  68       -0.9436
  69       -0.9400
  70       -0.9399
  71       -0.9399
  72       -0.9399
  73       -0.9257
  74       -0.9257
  75       -0.9257
  76       -0.9256
  77       -0.9071
  78       -0.9071
  79       -0.9071
  80       -0.9071
  81       -0.8970
  82       -0.8970
  83       -0.8009
  84       -0.8009
  85       -0.8009
  86       -0.8009
  87       -0.7750
  88       -0.7750
  89       -0.5458
  90       -0.5458
  91       -0.5458
  92       -0.5458
  93       -0.4374
  94       -0.4350
  95       -0.4349
  96       -0.4349
  97       -0.4349
  98       -0.3774
  99       -0.3774
 100       -0.3074
 101       -0.3074
 102       -0.3074
 103       -0.3074
 104       -0.2511
 105       -0.2511
 106       -0.2511
 107       -0.2511
 108       -0.1634
 109       -0.1634
 110       -0.1634
 111       -0.1633
 112       -0.1413
 113       -0.1004
 114       -0.1004
 115       -0.1004
 116       -0.1004
 117       -0.0588
 118       -0.0587
 119       -0.0587
 120       -0.0586
 121       -0.0524
 122       -0.0501
 123       -0.0501
 124       -0.0501
 125       -0.0501
 126       -0.0168
 127        0.0111
 128        0.0112
 129        0.0710
 130        0.0710
 131        0.0908
 132        0.0908
 133        0.0908
 134        0.0908
 135        0.1349
 136        0.1349
 137        0.1349
 138        0.1349
 139        0.2149
 140        0.3436
 141        0.3436
 142        0.3436
 143        0.3436
 144        0.3904
 145        0.5856
 146        0.5856
 147        0.5856
 148        0.5856
 149        0.6174
 150        0.6174
 151        0.6391
 152        0.6527
 153        0.6527
 154        0.6527
 155        0.6528
 156        0.7444
 157        0.7444
 158        0.8244
 159        0.8244
 160        0.8244
 161        0.8244
 162        0.8273
 163        0.8273
 164        0.8695
 165        0.8697
 166        0.8705
 167        0.8708
 168        1.5648
 169        1.5648
 170        1.5648
 171        1.5648
 172        2.0365
 173        2.0366
 174        2.0366
 175        2.0366
 176        2.5716
 177        2.5717
 178        2.5717
 179        2.5717
 180        2.6127
 181        2.6127
 182        2.6127
 183        2.6128
 184        3.5888
 185        4.4751
 186        4.4751
 187        4.6715
 188        4.6715
 189        4.6715
 190        4.6715
 191        5.5550
 192        5.5550
 193        5.5550
 194        5.5550
 195        5.9035
 196        5.9035
 197        6.2967
 198        6.2967
 199        7.1497
 200        7.1672
 201        7.1672
 202        8.0414
 203        8.0414
 204        8.0414
 205        8.0414
 206        8.1228
 207        8.1228
 208        8.1228
 209        8.1228
 210        8.7712
 211        8.7712
 212        8.7712
 213        8.7712
 214        8.8777
 215        8.8778
 216        9.0483
 
  0.2500000E+00  0.0000000E+00  0.0000000E+00  0.1157407E-02
   1       -4.4705
   2       -3.4182
   3       -2.5948
   4       -2.5948
   5       -2.5948
   6       -2.5948
   7       -2.5015
   8       -2.5015
   9       -2.5015
  10       -2.5015
  11       -2.2925
  12       -2.2521
  13       -2.2490
  14       -2.2489
  15       -2.1146
  16       -2.0916
  17       -2.0916
  18       -1.9886
  19       -1.9886
  20       -1.9885
  21       -1.9885
  22       -1.9793
  23       -1.9793
  24       -1.9792
  25       -1.9792
  26       -1.8052
  27       -1.7484
  28       -1.7483
  29       -1.5745
  30       -1.5745
  31       -1.5703
  32       -1.5703
  33       -1.5702
  34       -1.5702
  35       -1.5514
  36       -1.5514
  37       -1.5514
  38       -1.5514
  39       -1.5381
  40       -1.5381
  41       -1.5381
  42       -1.5381
  43       -1.3341
  44       -1.2997
  45       -1.2997
  46       -1.2997
  47       -1.2996
  48       -1.1854
  49       -1.1854
  50       -1.1854
  51       -1.1854
  52       -1.1259
  53       -1.1251
  54       -1.1251
  55       -1.1251
  56       -1.1226
  57       -1.1225
  58       -1.1225
  59       -1.1218
  60       -1.0778
  61       -1.0772
  62       -1.0772
  63       -1.0772
  64       -1.0750
  65       -1.0750
  66       -1.0750
  67       -1.0744
  68       -0.9728
  69       -0.9515
  70       -0.9515
  71       -0.9515
  72       -0.9515
  73       -0.9333
  74       -0.9333
  75       -0.9333
  76       -0.9332
  77       -0.8785
  78       -0.8785
  79       -0.8785
  80       -0.8785
  81       -0.8685
  82       -0.8685
  83       -0.6514
  84       -0.6514
  85       -0.6514
  86       -0.6514
  87       -0.6378
  88       -0.6378
  89       -0.6378
  90       -0.6378
  91       -0.5820
  92       -0.5820
  93       -0.5115
  94       -0.5115
  95       -0.5115
  96       -0.5115
  97       -0.4752
  98       -0.4752
  99       -0.3995
 100       -0.2539
 101       -0.2539
 102       -0.2539
 103       -0.2539
 104       -0.1873
 105       -0.1873
 106       -0.1873
 107       -0.1873
 108       -0.1649
 109       -0.1649
 110       -0.1648
 111       -0.1648
 112       -0.1286
 113       -0.1286
 114       -0.1286
 115       -0.1286
 116       -0.0824
 117       -0.0421
 118       -0.0421
 119       -0.0421
 120       -0.0421
 121       -0.0176
 122       -0.0176
 123       -0.0176
 124       -0.0176
 125       -0.0033
 126        0.0876
 127        0.0876
 128        0.1278
 129        0.1731
 130        0.1755
 131        0.1755
 132        0.1755
 133        0.1760
 134        0.1895
 135        0.1895
 136        0.2230
 137        0.2230
 138        0.2230
 139        0.2230
 140        0.4144
 141        0.4144
 142        0.4144
 143        0.4144
 144        0.4332
 145        0.4684
 146        0.4684
 147        0.4684
 148        0.4684
 149        0.5754
 150        0.5754
 151        0.6041
 152        0.6041
 153        0.6158
 154        0.6158
 155        0.6158
 156        0.6158
 157        0.6240
 158        0.7694
 159        0.7694
 160        0.7694
 161        0.7694
 162        0.7760
 163        0.7760
 164        0.8695
 165        0.8698
 166        0.8704
 167        0.8707
 168        1.3614
 169        1.3614
 170        1.3614
 171        1.3614
 172        2.0560
 173        2.0560
 174        2.0560
 175        2.0560
 176        2.4767
 177        2.4767
 178        2.4767
 179        2.4767
 180        2.8896
 181        2.8896
 182        2.8896
 183        2.8896
 184        3.0257
 185        4.6793
 186        4.6793
 187        5.0375
 188        5.0375
 189        5.0375
 190        5.0375
 191        5.2208
 192        5.2208
 193        5.2208
 194        5.2208
 195        5.9391
 196        5.9391
 197        6.2604
 198        6.2604
 199        6.7514
 200        6.7514
 201        7.8547
 202        8.0784
 203        8.0784
 204        8.0784
 205        8.0784
 206        8.1826
 207        8.1826
 208        8.1826
 209        8.1826
 210        8.2490
 211        8.2490
 212        8.2490
 213        8.2490
 214        8.8256
 215        8.8256
 216        8.8256
 
  0.3333333E+00  0.0000000E+00  0.0000000E+00  0.1157407E-02
   1       -4.3622
   2       -3.6518
   3       -2.5212
   4       -2.5212
   5       -2.5211
   6       -2.5211
   7       -2.4473
   8       -2.4473
   9       -2.4473
  10       -2.4473
  11       -2.2671
  12       -2.2093
  13       -2.1885
  14       -2.1885
  15       -2.0994
  16       -2.0994
  17       -2.0993
  18       -2.0993
  19       -2.0932
  20       -2.0931
  21       -2.0931
  22       -2.0931
  23       -2.0824
  24       -2.0410
  25       -2.0410
  26       -1.8738
  27       -1.8391
  28       -1.8391
  29       -1.6957
  30       -1.6957
  31       -1.5281
  32       -1.5279
  33       -1.5279
  34       -1.5279
  35       -1.5195
  36       -1.5195
  37       -1.5195
  38       -1.5194
  39       -1.5104
  40       -1.5104
  41       -1.5104
  42       -1.5104
  43       -1.3461
  44       -1.3461
  45       -1.3461
  46       -1.3461
  47       -1.2580
  48       -1.2161
  49       -1.2161
  50       -1.2161
  51       -1.2160
  52       -1.1446
  53       -1.1446
  54       -1.1446
  55       -1.1446
  56       -1.1218
  57       -1.1213
  58       -1.1213
  59       -1.1213
  60       -1.1160
  61       -1.1159
  62       -1.1159
  63       -1.1155
  64       -1.0491
  65       -1.0491
  66       -1.0491
  67       -1.0491
  68       -1.0127
  69       -0.9668
  70       -0.9668
  71       -0.9668
  72       -0.9668
  73       -0.9269
  74       -0.9269
  75       -0.9269
  76       -0.9269
  77       -0.8391
  78       -0.8391
  79       -0.8391
  80       -0.8390
  81       -0.8288
  82       -0.8288
  83       -0.7236
  84       -0.7236
  85       -0.7236
  86       -0.7236
  87       -0.5892
  88       -0.5892
  89       -0.5892
  90       -0.5892
  91       -0.5650
  92       -0.5650
  93       -0.4686
  94       -0.4686
  95       -0.4686
  96       -0.4686
  97       -0.3812
  98       -0.3812
  99       -0.3469
 100       -0.1929
 101       -0.1929
 102       -0.1929
 103       -0.1929
 104       -0.1661
 105       -0.1661
 106       -0.1661
 107       -0.1661
 108       -0.1473
 109       -0.1473
 110       -0.1473
 111       -0.1473
 112       -0.1295
 113       -0.1295
 114       -0.1295
 115       -0.1295
 116       -0.1229
 117       -0.0373
 118       -0.0373
 119       -0.0372
 120       -0.0372
 121       -0.0131
 122       -0.0131
 123       -0.0130
 124       -0.0130
 125        0.0154
 126        0.1348
 127        0.1776
 128        0.1777
 129        0.2638
 130        0.2638
 131        0.2638
 132        0.2638
 133        0.3065
 134        0.3065
 135        0.3138
 136        0.3138
 137        0.3138
 138        0.3138
 139        0.3184
 140        0.3184
 141        0.3184
 142        0.3185
 143        0.4306
 144        0.4306
 145        0.4741
 146        0.4806
 147        0.5179
 148        0.5179
 149        0.5251
 150        0.5251
 151        0.5251
 152        0.5251
 153        0.5655
 154        0.5655
 155        0.5655
 156        0.5655
 157        0.6033
 158        0.6971
 159        0.6971
 160        0.6971
 161        0.6971
 162        0.7069
 163        0.7069
 164        0.8696
 165        0.8699
 166        0.8703
 167        0.8707
 168        1.1705
 169        1.1705
 170        1.1705
 171        1.1705
 172        2.0851
 173        2.0851
 174        2.0851
 175        2.0851
 176        2.3553
 177        2.3553
 178        2.3553
 179        2.3553
 180        2.4548
 181        3.2372
 182        3.2372
 183        3.2372
 184        3.2372
 185        4.8317
 186        4.8317
 187        4.8317
 188        4.8317
 189        4.9417
 190        4.9417
 191        5.4710
 192        5.4710
 193        5.4710
 194        5.4710
 195        5.9857
 196        5.9857
 197        6.2132
 198        6.2132
 199        6.3473
 200        6.3473
 201        7.5940
 202        7.5940
 203        7.5940
 204        7.5940
 205        8.1385
 206        8.1385
 207        8.1385
 208        8.1385
 209        8.4209
 210        8.4209
 211        8.4209
 212        8.4209
 213        8.6302
 214        8.6330
 215        8.6330
 216        8.6330
 
  0.4166667E+00  0.0000000E+00  0.0000000E+00  0.1157407E-02
   1       -4.2245
   2       -3.8668
   3       -2.4307
   4       -2.4306
   5       -2.4306
   6       -2.4306
   7       -2.3784
   8       -2.3784
   9       -2.3784
  10       -2.3784
  11       -2.2398
  12       -2.2144
  13       -2.2144
  14       -2.2144
  15       -2.2144
  16       -2.2020
  17       -2.1998
  18       -2.1997
  19       -2.1997
  20       -2.1995
  21       -2.1138
  22       -2.1138
  23       -2.0416
  24       -1.9760
  25       -1.9760
  26       -1.9366
  27       -1.9346
  28       -1.9346
  29       -1.8033
  30       -1.8033
  31       -1.4948
  32       -1.4945
  33       -1.4945
  34       -1.4945
  35       -1.4906
  36       -1.4906
  37       -1.4906
  38       -1.4903
  39       -1.4761
  40       -1.4761
  41       -1.4761
  42       -1.4761
  43       -1.3923
  44       -1.3923
  45       -1.3923
  46       -1.3923
  47       -1.2385
  48       -1.2385
  49       -1.2385
  50       -1.2385
  51       -1.2022
  52       -1.2022
  53       -1.2022
  54       -1.2022
  55       -1.1864
  56       -1.1182
  57       -1.1176
  58       -1.1176
  59       -1.1176
  60       -1.1138
  61       -1.1138
  62       -1.1138
  63       -1.1132
  64       -1.0624
  65       -1.0264
  66       -1.0264
  67       -1.0264
  68       -1.0263
  69       -0.9849
  70       -0.9849
  71       -0.9849
  72       -0.9849
  73       -0.9021
  74       -0.9021
  75       -0.9021
  76       -0.9021
  77       -0.7985
  78       -0.7984
  79       -0.7984
  80       -0.7983
  81       -0.7893
  82       -0.7893
  83       -0.7893
  84       -0.7892
  85       -0.7782
  86       -0.7782
  87       -0.6630
  88       -0.6630
  89       -0.6630
  90       -0.6630
  91       -0.6458
  92       -0.6458
  93       -0.2879
  94       -0.2696
  95       -0.2696
  96       -0.2696
  97       -0.2696
  98       -0.1752
  99       -0.1752
 100       -0.1723
 101       -0.1663
 102       -0.1663
 103       -0.1663
 104       -0.1663
 105       -0.1585
 106       -0.1585
 107       -0.1585
 108       -0.1585
 109       -0.1326
 110       -0.1326
 111       -0.1326
 112       -0.1326
 113       -0.0847
 114       -0.0847
 115       -0.0847
 116       -0.0847
 117       -0.0405
 118       -0.0404
 119       -0.0403
 120       -0.0403
 121       -0.0368
 122       -0.0368
 123       -0.0367
 124       -0.0366
 125        0.0389
 126        0.0991
 127        0.1320
 128        0.1320
 129        0.1320
 130        0.1320
 131        0.2368
 132        0.2368
 133        0.2719
 134        0.2719
 135        0.3501
 136        0.3501
 137        0.3501
 138        0.3501
 139        0.4177
 140        0.4177
 141        0.4177
 142        0.4177
 143        0.4195
 144        0.4195
 145        0.4464
 146        0.4464
 147        0.5032
 148        0.5032
 149        0.5033
 150        0.5033
 151        0.5122
 152        0.5774
 153        0.6114
 154        0.6114
 155        0.6114
 156        0.6114
 157        0.6226
 158        0.6226
 159        0.6641
 160        0.6641
 161        0.6641
 162        0.6641
 163        0.8696
 164        0.8700
 165        0.8702
 166        0.8706
 167        0.9032
 168        0.9904
 169        0.9904
 170        0.9904
 171        0.9904
 172        1.9019
 173        2.1262
 174        2.1262
 175        2.1262
 176        2.1262
 177        2.2574
 178        2.2574
 179        2.2574
 180        2.2574
 181        3.6123
 182        3.6123
 183        3.6123
 184        3.6123
 185        4.4208
 186        4.4208
 187        4.4208
 188        4.4208
 189        5.2490
 190        5.2490
 191        5.9524
 192        5.9524
 193        5.9527
 194        5.9528
 195        5.9591
 196        5.9591
 197        6.0403
 198        6.0403
 199        6.1581
 200        6.1581
 201        7.0210
 202        7.0210
 203        7.0210
 204        7.0210
 205        8.2231
 206        8.2231
 207        8.2231
 208        8.2231
 209        8.4692
 210        8.4692
 211        8.4692
 212        8.4692
 213        8.6345
 214        8.6345
 215        8.6345
 216        8.6345
 
  0.5000000E+00  0.0000000E+00  0.0000000E+00  0.5787037E-03
   1       -4.0600
   2       -4.0574
   3       -2.3296
   4       -2.3275
   5       -2.3273
   6       -2.3273
   7       -2.3263
   8       -2.3263
   9       -2.3261
  10       -2.3242
  11       -2.2966
  12       -2.2966
  13       -2.2963
  14       -2.2961
  15       -2.2948
  16       -2.2946
  17       -2.2943
  18       -2.2943
  19       -2.2161
  20       -2.2150
  21       -2.0292
  22       -2.0286
  23       -2.0273
  24       -2.0267
  25       -1.9936
  26       -1.9920
  27       -1.8977
  28       -1.8977
  29       -1.8958
  30       -1.8958
  31       -1.4805
  32       -1.4794
  33       -1.4793
  34       -1.4793
  35       -1.4793
  36       -1.4793
  37       -1.4792
  38       -1.4782
  39       -1.4374
  40       -1.4372
  41       -1.4372
  42       -1.4364
  43       -1.4360
  44       -1.4353
  45       -1.4353
  46       -1.4351
  47       -1.2373
  48       -1.2373
  49       -1.2373
  50       -1.2369
  51       -1.2366
  52       -1.2362
  53       -1.2362
  54       -1.2361
  55       -1.1212
  56       -1.1205
  57       -1.1162
  58       -1.1152
  59       -1.1152
  60       -1.1149
  61       -1.1146
  62       -1.1143
  63       -1.1143
  64       -1.1130
  65       -1.0053
  66       -1.0052
  67       -1.0051
  68       -1.0051
  69       -1.0048
  70       -1.0048
  71       -1.0047
  72       -1.0045
  73       -0.8594
  74       -0.8594
  75       -0.8593
  76       -0.8588
  77       -0.8585
  78       -0.8580
  79       -0.8579
  80       -0.8579
  81       -0.7318
  82       -0.7314
  83       -0.7314
  84       -0.7305
  85       -0.7301
  86       -0.7293
  87       -0.7293
  88       -0.7288
  89       -0.7179
  90       -0.7179
  91       -0.7162
  92       -0.7162
  93       -0.2287
  94       -0.2278
  95       -0.1646
  96       -0.1646
  97       -0.1645
  98       -0.1643
  99       -0.1642
 100       -0.1641
 101       -0.1639
 102       -0.1639
 103       -0.0800
 104       -0.0792
 105       -0.0792
 106       -0.0791
 107       -0.0787
 108       -0.0785
 109       -0.0785
 110       -0.0779
 111       -0.0667
 112       -0.0664
 113       -0.0663
 114       -0.0663
 115       -0.0659
 116       -0.0659
 117       -0.0656
 118       -0.0654
 119       -0.0559
 120       -0.0557
 121       -0.0552
 122       -0.0552
 123       -0.0551
 124       -0.0551
 125       -0.0546
 126       -0.0544
 127        0.0319
 128        0.0319
 129        0.0331
 130        0.0331
 131        0.0662
 132        0.0676
 133        0.3630
 134        0.3631
 135        0.3633
 136        0.3634
 137        0.4299
 138        0.4303
 139        0.4303
 140        0.4304
 141        0.4310
 142        0.4312
 143        0.4312
 144        0.4316
 145        0.5157
 146        0.5157
 147        0.5166
 148        0.5166
 149        0.5170
 150        0.5171
 151        0.5178
 152        0.5178
 153        0.5256
 154        0.5256
 155        0.5262
 156        0.5262
 157        0.5468
 158        0.5470
 159        0.8203
 160        0.8206
 161        0.8206
 162        0.8207
 163        0.8213
 164        0.8213
 165        0.8213
 166        0.8217
 167        0.8696
 168        0.8701
 169        0.8701
 170        0.8706
 171        1.3809
 172        1.3811
 173        2.1804
 174        2.1815
 175        2.1818
 176        2.1818
 177        2.1827
 178        2.1827
 179        2.1831
 180        2.1842
 181        4.0083
 182        4.0083
 183        4.0086
 184        4.0096
 185        4.0099
 186        4.0109
 187        4.0112
 188        4.0112
 189        5.5895
 190        5.5895
 191        5.5918
 192        5.5918
 193        6.0989
 194        6.0991
 195        6.0991
 196        6.0993
 197        6.4698
 198        6.4698
 199        6.4714
 200        6.4718
 201        6.4719
 202        6.4723
 203        6.4739
 204        6.4739
 205        8.3306
 206        8.3328
 207        8.3328
 208        8.3329
 209        8.3330
 210        8.3331
 211        8.3331
 212        8.3353
 213        8.8845
 214        8.8850
 215        8.8858
 216        8.8866
 
  0.0000000E+00  0.8333333E-01  0.0000000E+00  0.2314815E-02
   1       -4.5954
   2       -2.9261
   3       -2.6841
   4       -2.6821
   5       -2.6821
   6       -2.6801
   7       -2.5640
   8       -2.5640
   9       -2.5640
  10       -2.5640
  11       -2.4935
  12       -2.3255
  13       -2.3207
  14       -2.3207
  15       -2.1520
  16       -2.1495
  17       -2.1495
  18       -1.8036
  19       -1.8022
  20       -1.8021
  21       -1.8006
  22       -1.7718
  23       -1.7711
  24       -1.7709
  25       -1.7701
  26       -1.6713
  27       -1.6701
  28       -1.6701
  29       -1.6689
  30       -1.6546