 vasp.4.6.28 25Jul05 complex 
 executed on             LinuxIFC date 2017.01.14  12:19:49
 running on    8 nodes
 distr:  one band on    1 nodes,    8 groups


--------------------------------------------------------------------------------------------------------


 INCAR:
 POTCAR:   PAW_PBE Au 06Sep2000                   
 POTCAR:   PAW_PBE Au 06Sep2000                   
   VRHFIN =Au: s1d10                                                            
   LEXCH  = PE                                                                  
   EATOM  =   926.0567 eV,   68.0632 Ry                                         
                                                                                
   TITEL  = PAW_PBE Au 06Sep2000                                                
   LULTRA =        F    use ultrasoft PP ?                                      
   IUNSCR =        1    unscreen: 0-lin 1-nonlin 2-no                           
   RPACOR =    2.330    partial core radius                                     
   POMASS =  196.966; ZVAL   =   11.000    mass and valenz                      
   RCORE  =    2.500    outmost cutoff radius                                   
   RWIGS  =    2.840; RWIGS  =    1.503    wigner-seitz radius (au A)           
   ENMAX  =  229.948; ENMIN  =  172.461 eV                                      
   RCLOC  =    1.964    cutoff for local pot                                    
   LCOR   =        T    correct aug charges                                     
   LPAW   =        T    paw PP                                                  
   EAUG   =  356.670                                                            
   DEXC   =    -.025                                                            
   RMAX   =    3.041    core radius for proj-oper                               
   RAUG   =    1.300    factor for augmentation sphere                          
   RDEP   =    2.598    radius for radial grids                                 
   QCUT   =   -4.111; QGAM   =    8.222    optimization parameters              
                                                                                
   Description                                                                  
     l     E      TYP  RCUT    TYP  RCUT                                        
     2   .000     23  2.500                                                     
     2   .000     23  2.500                                                     
     0   .000     23  2.500                                                     
     0   .000     23  2.500                                                     
     1  -.200     23  2.500                                                     
     1   .000     23  2.500                                                     
     3   .000      7   .000                                                     
  local pseudopotential read in
  partial core-charges read in
  atomic valenz-charges read in
  non local Contribution for L=           2  read in
    real space projection operators read in
  non local Contribution for L=           2  read in
    real space projection operators read in
  non local Contribution for L=           0  read in
    real space projection operators read in
  non local Contribution for L=           0  read in
    real space projection operators read in
  non local Contribution for L=           1  read in
    real space projection operators read in
  non local Contribution for L=           1  read in
    real space projection operators read in
    PAW grid and wavefunctions read in
 
   number of l-projection  operators is LMAX  =           6
   number of lm-projection operators is LMMAX =          18
 

 ----------------------------------------------------------------------------- 
|                                                                             |
|  ADVICE TO THIS USER RUNNING 'VASP/VAMP'   (HEAR YOUR MASTER'S VOICE ...):  |
|                                                                             |
|      You have a (more or less) 'large supercell' and for larger cells       |
|      it might be more efficient to use real space projection operators      |
|      So try LREAL= Auto  in the INCAR   file.                               |
|      Mind: If you want to do an extremely accurate calculations keep the    |
|      reciprocal projection scheme          (i.e. LREAL=.FALSE.)             |
|                                                                             |
 ----------------------------------------------------------------------------- 

 PAW_PBE Au 06Sep2000                   :
 energy of atom  1       EATOM= -926.0567
 kinetic energy error for atom=    0.0008 (will be added to EATOM!!)
 
 EXHCAR: internal setup
 exchange correlation table for  LEXCH =        8
   RHO(1)=    0.500       N(1)  =     2000
   RHO(2)=  100.500       N(2)  =     4000
 
 POSCAR: Au                                      
  positions in direct lattice
  No initial velocities read in
 


--------------------------------------------------------------------------------------------------------


 ion  position               nearest neighbor table
   1  0.001  0.000  0.000-   9 3.18  11 3.18  17 3.18  21 3.18  25 3.19  27 3.19  29 3.19  31 3.19
                            10 3.19  18 3.19  12 3.19  22 3.19
   2  0.500  0.000  0.000-   9 3.19  10 3.19  11 3.19  12 3.19  17 3.19  18 3.19  21 3.19  22 3.19
                            26 3.19  28 3.19  30 3.19  32 3.19
   3  0.000  0.500  0.000-   9 3.19  10 3.19  11 3.19  12 3.19  19 3.19  20 3.19  23 3.19  24 3.19
                            25 3.19  27 3.19  29 3.19  31 3.19
   4  0.500  0.500  0.000-   9 3.19  10 3.19  11 3.19  12 3.19  19 3.19  20 3.19  23 3.19  24 3.19
                            26 3.19  28 3.19  30 3.19  32 3.19
   5  0.000  0.000  0.500-  13 3.19  14 3.19  15 3.19  16 3.19  17 3.19  18 3.19  21 3.19  22 3.19
                            25 3.19  27 3.19  29 3.19  31 3.19
   6  0.500  0.000  0.500-  13 3.19  14 3.19  15 3.19  16 3.19  17 3.19  18 3.19  21 3.19  22 3.19
                            26 3.19  28 3.19  30 3.19  32 3.19
   7  0.000  0.500  0.500-  13 3.19  14 3.19  15 3.19  16 3.19  19 3.19  20 3.19  23 3.19  24 3.19
                            25 3.19  27 3.19  29 3.19  31 3.19
   8  0.500  0.500  0.500-  13 3.19  14 3.19  15 3.19  16 3.19  19 3.19  20 3.19  23 3.19  24 3.19
                            26 3.19  28 3.19  30 3.19  32 3.19
   9  0.250  0.250  0.000-   1 3.18   2 3.19   3 3.19   4 3.19  17 3.19  19 3.19  21 3.19  23 3.19
                            25 3.19  26 3.19  29 3.19  30 3.19
  10  0.750  0.250  0.000-   2 3.19   3 3.19   4 3.19  18 3.19  20 3.19  22 3.19  24 3.19  25 3.19
                            26 3.19  29 3.19  30 3.19   1 3.19
  11  0.250  0.750  0.000-   1 3.18   2 3.19   3 3.19   4 3.19  17 3.19  19 3.19  21 3.19  23 3.19
                            27 3.19  28 3.19  31 3.19  32 3.19
  12  0.750  0.750  0.000-   2 3.19   3 3.19   4 3.19  18 3.19  20 3.19  22 3.19  24 3.19  27 3.19
                            28 3.19  31 3.19  32 3.19   1 3.19
  13  0.250  0.250  0.500-   5 3.19   6 3.19   7 3.19   8 3.19  17 3.19  19 3.19  21 3.19  23 3.19
                            25 3.19  26 3.19  29 3.19  30 3.19
  14  0.750  0.250  0.500-   5 3.19   6 3.19   7 3.19   8 3.19  18 3.19  20 3.19  22 3.19  24 3.19
                            25 3.19  26 3.19  29 3.19  30 3.19
  15  0.250  0.750  0.500-   5 3.19   6 3.19   7 3.19   8 3.19  17 3.19  19 3.19  21 3.19  23 3.19
                            27 3.19  28 3.19  31 3.19  32 3.19
  16  0.750  0.750  0.500-   5 3.19   6 3.19   7 3.19   8 3.19  18 3.19  20 3.19  22 3.19  24 3.19
                            27 3.19  28 3.19  31 3.19  32 3.19
  17  0.250  0.000  0.250-   1 3.18   2 3.19   5 3.19   6 3.19   9 3.19  11 3.19  13 3.19  15 3.19
                            25 3.19  26 3.19  27 3.19  28 3.19
  18  0.750  0.000  0.250-   2 3.19   5 3.19   6 3.19  10 3.19  12 3.19  14 3.19  16 3.19  25 3.19
                            26 3.19  27 3.19  28 3.19   1 3.19
  19  0.250  0.500  0.250-   3 3.19   4 3.19   7 3.19   8 3.19   9 3.19  11 3.19  13 3.19  15 3.19
                            25 3.19  26 3.19  27 3.19  28 3.19
  20  0.750  0.500  0.250-   3 3.19   4 3.19   7 3.19   8 3.19  10 3.19  12 3.19  14 3.19  16 3.19
                            25 3.19  26 3.19  27 3.19  28 3.19
  21  0.250  0.000  0.750-   1 3.18   2 3.19   5 3.19   6 3.19   9 3.19  11 3.19  13 3.19  15 3.19
                            29 3.19  30 3.19  31 3.19  32 3.19
  22  0.750  0.000  0.750-   2 3.19   5 3.19   6 3.19  10 3.19  12 3.19  14 3.19  16 3.19  29 3.19
                            30 3.19  31 3.19  32 3.19   1 3.19
  23  0.250  0.500  0.750-   3 3.19   4 3.19   7 3.19   8 3.19   9 3.19  11 3.19  13 3.19  15 3.19
                            29 3.19  30 3.19  31 3.19  32 3.19
  24  0.750  0.500  0.750-   3 3.19   4 3.19   7 3.19   8 3.19  10 3.19  12 3.19  14 3.19  16 3.19
                            29 3.19  30 3.19  31 3.19  32 3.19
  25  0.000  0.250  0.250-   3 3.19   5 3.19   7 3.19   9 3.19  10 3.19  13 3.19  14 3.19  17 3.19
                            18 3.19  19 3.19  20 3.19   1 3.19
  26  0.500  0.250  0.250-   2 3.19   4 3.19   6 3.19   8 3.19   9 3.19  10 3.19  13 3.19  14 3.19
                            17 3.19  18 3.19  19 3.19  20 3.19
  27  0.000  0.750  0.250-   3 3.19   5 3.19   7 3.19  11 3.19  12 3.19  15 3.19  16 3.19  17 3.19
                            18 3.19  19 3.19  20 3.19   1 3.19
  28  0.500  0.750  0.250-   2 3.19   4 3.19   6 3.19   8 3.19  11 3.19  12 3.19  15 3.19  16 3.19
                            17 3.19  18 3.19  19 3.19  20 3.19
  29  0.000  0.250  0.750-   3 3.19   5 3.19   7 3.19   9 3.19  10 3.19  13 3.19  14 3.19  21 3.19
                            22 3.19  23 3.19  24 3.19   1 3.19
  30  0.500  0.250  0.750-   2 3.19   4 3.19   6 3.19   8 3.19   9 3.19  10 3.19  13 3.19  14 3.19
                            21 3.19  22 3.19  23 3.19  24 3.19
  31  0.000  0.750  0.750-   3 3.19   5 3.19   7 3.19  11 3.19  12 3.19  15 3.19  16 3.19  21 3.19
                            22 3.19  23 3.19  24 3.19   1 3.19
  32  0.500  0.750  0.750-   2 3.19   4 3.19   6 3.19   8 3.19  11 3.19  12 3.19  15 3.19  16 3.19
                            21 3.19  22 3.19  23 3.19  24 3.19
 
  LATTYP: Found a simple cubic cell.
 ALAT       =     9.0133601090
  
  Lattice vectors:
  
 A1 = (   9.0133601090,   0.0000000000,   0.0000000000)
 A2 = (   0.0000000000,   9.0133601090,   0.0000000000)
 A3 = (   0.0000000000,   0.0000000000,   9.0133601090)
 Subroutine PRICEL returns:
 Original cell was already a primitive cell.
 

Analysis of symmetry for initial positions (statically):

 Routine SETGRP: Setting up the symmetry group for a 
 simple cubic supercell.


 Subroutine GETGRP returns: Found  8 space group operations
 (whereof  8 operations were pure point group operations)
 out of a pool of 48 trial point group operations.


The static configuration has the point symmetry C_4v.

Analysis of symmetry for dynamics (positions and initial velocities):

 Subroutine DYNSYM returns: Found  8 space group operations
 (whereof  8 operations were pure point group operations)
 out of a pool of  8 trial space group operations
 (whereof  8 operations were pure point group operations)
 and found also     1 'primitive' translations


The dynamic configuration has the point symmetry C_4v.
 
 
 KPOINTS: Automatic mesh                          

Automatic generation of k-mesh.
 
 Subroutine IBZKPT returns following result:
 ===========================================
 
 Found    196 irreducible k-points:
 
 Following reciprocal coordinates:
            Coordinates               Weight
  0.000000  0.000000  0.000000      1.000000
  0.083333  0.000000  0.000000      2.000000
  0.166667  0.000000  0.000000      2.000000
  0.250000  0.000000  0.000000      2.000000
  0.333333  0.000000  0.000000      2.000000
  0.416667  0.000000  0.000000      2.000000
  0.500000  0.000000  0.000000      1.000000
  0.000000  0.083333  0.000000      4.000000
  0.083333  0.083333  0.000000      8.000000
  0.166667  0.083333  0.000000      8.000000
  0.250000  0.083333  0.000000      8.000000
  0.333333  0.083333  0.000000      8.000000
  0.416667  0.083333  0.000000      8.000000
  0.500000  0.083333  0.000000      4.000000
  0.000000  0.166667  0.000000      4.000000
  0.083333  0.166667  0.000000      8.000000
  0.166667  0.166667  0.000000      8.000000
  0.250000  0.166667  0.000000      8.000000
  0.333333  0.166667  0.000000      8.000000
  0.416667  0.166667  0.000000      8.000000
  0.500000  0.166667  0.000000      4.000000
  0.000000  0.250000  0.000000      4.000000
  0.083333  0.250000  0.000000      8.000000
  0.166667  0.250000  0.000000      8.000000
  0.250000  0.250000  0.000000      8.000000
  0.333333  0.250000  0.000000      8.000000
  0.416667  0.250000  0.000000      8.000000
  0.500000  0.250000  0.000000      4.000000
  0.000000  0.333333  0.000000      4.000000
  0.083333  0.333333  0.000000      8.000000
  0.166667  0.333333  0.000000      8.000000
  0.250000  0.333333  0.000000      8.000000
  0.333333  0.333333  0.000000      8.000000
  0.416667  0.333333  0.000000      8.000000
  0.500000  0.333333  0.000000      4.000000
  0.000000  0.416667  0.000000      4.000000
  0.083333  0.416667  0.000000      8.000000
  0.166667  0.416667  0.000000      8.000000
  0.250000  0.416667  0.000000      8.000000
  0.333333  0.416667  0.000000      8.000000
  0.416667  0.416667  0.000000      8.000000
  0.500000  0.416667  0.000000      4.000000
  0.000000  0.500000  0.000000      2.000000
  0.083333  0.500000  0.000000      4.000000
  0.166667  0.500000  0.000000      4.000000
  0.250000  0.500000  0.000000      4.000000
  0.333333  0.500000  0.000000      4.000000
  0.416667  0.500000  0.000000      4.000000
  0.500000  0.500000  0.000000      2.000000
  0.000000  0.083333  0.083333      4.000000
  0.083333  0.083333  0.083333      8.000000
  0.166667  0.083333  0.083333      8.000000
  0.250000  0.083333  0.083333      8.000000
  0.333333  0.083333  0.083333      8.000000
  0.416667  0.083333  0.083333      8.000000
  0.500000  0.083333  0.083333      4.000000
  0.000000  0.166667  0.083333      8.000000
  0.083333  0.166667  0.083333     16.000000
  0.166667  0.166667  0.083333     16.000000
  0.250000  0.166667  0.083333     16.000000
  0.333333  0.166667  0.083333     16.000000
  0.416667  0.166667  0.083333     16.000000
  0.500000  0.166667  0.083333      8.000000
  0.000000  0.250000  0.083333      8.000000
  0.083333  0.250000  0.083333     16.000000
  0.166667  0.250000  0.083333     16.000000
  0.250000  0.250000  0.083333     16.000000
  0.333333  0.250000  0.083333     16.000000
  0.416667  0.250000  0.083333     16.000000
  0.500000  0.250000  0.083333      8.000000
  0.000000  0.333333  0.083333      8.000000
  0.083333  0.333333  0.083333     16.000000
  0.166667  0.333333  0.083333     16.000000
  0.250000  0.333333  0.083333     16.000000
  0.333333  0.333333  0.083333     16.000000
  0.416667  0.333333  0.083333     16.000000
  0.500000  0.333333  0.083333      8.000000
  0.000000  0.416667  0.083333      8.000000
  0.083333  0.416667  0.083333     16.000000
  0.166667  0.416667  0.083333     16.000000
  0.250000  0.416667  0.083333     16.000000
  0.333333  0.416667  0.083333     16.000000
  0.416667  0.416667  0.083333     16.000000
  0.500000  0.416667  0.083333      8.000000
  0.000000  0.500000  0.083333      4.000000
  0.083333  0.500000  0.083333      8.000000
  0.166667  0.500000  0.083333      8.000000
  0.250000  0.500000  0.083333      8.000000
  0.333333  0.500000  0.083333      8.000000
  0.416667  0.500000  0.083333      8.000000
  0.500000  0.500000  0.083333      4.000000
  0.000000  0.166667  0.166667      4.000000
  0.083333  0.166667  0.166667      8.000000
  0.166667  0.166667  0.166667      8.000000
  0.250000  0.166667  0.166667      8.000000
  0.333333  0.166667  0.166667      8.000000
  0.416667  0.166667  0.166667      8.000000
  0.500000  0.166667  0.166667      4.000000
  0.000000  0.250000  0.166667      8.000000
  0.083333  0.250000  0.166667     16.000000
  0.166667  0.250000  0.166667     16.000000
  0.250000  0.250000  0.166667     16.000000
  0.333333  0.250000  0.166667     16.000000
  0.416667  0.250000  0.166667     16.000000
  0.500000  0.250000  0.166667      8.000000
  0.000000  0.333333  0.166667      8.000000
  0.083333  0.333333  0.166667     16.000000
  0.166667  0.333333  0.166667     16.000000
  0.250000  0.333333  0.166667     16.000000
  0.333333  0.333333  0.166667     16.000000
  0.416667  0.333333  0.166667     16.000000
  0.500000  0.333333  0.166667      8.000000
  0.000000  0.416667  0.166667      8.000000
  0.083333  0.416667  0.166667     16.000000
  0.166667  0.416667  0.166667     16.000000
  0.250000  0.416667  0.166667     16.000000
  0.333333  0.416667  0.166667     16.000000
  0.416667  0.416667  0.166667     16.000000
  0.500000  0.416667  0.166667      8.000000
  0.000000  0.500000  0.166667      4.000000
  0.083333  0.500000  0.166667      8.000000
  0.166667  0.500000  0.166667      8.000000
  0.250000  0.500000  0.166667      8.000000
  0.333333  0.500000  0.166667      8.000000
  0.416667  0.500000  0.166667      8.000000
  0.500000  0.500000  0.166667      4.000000
  0.000000  0.250000  0.250000      4.000000
  0.083333  0.250000  0.250000      8.000000
  0.166667  0.250000  0.250000      8.000000
  0.250000  0.250000  0.250000      8.000000
  0.333333  0.250000  0.250000      8.000000
  0.416667  0.250000  0.250000      8.000000
  0.500000  0.250000  0.250000      4.000000
  0.000000  0.333333  0.250000      8.000000
  0.083333  0.333333  0.250000     16.000000
  0.166667  0.333333  0.250000     16.000000
  0.250000  0.333333  0.250000     16.000000
  0.333333  0.333333  0.250000     16.000000
  0.416667  0.333333  0.250000     16.000000
  0.500000  0.333333  0.250000      8.000000
  0.000000  0.416667  0.250000      8.000000
  0.083333  0.416667  0.250000     16.000000
  0.166667  0.416667  0.250000     16.000000
  0.250000  0.416667  0.250000     16.000000
  0.333333  0.416667  0.250000     16.000000
  0.416667  0.416667  0.250000     16.000000
  0.500000  0.416667  0.250000      8.000000
  0.000000  0.500000  0.250000      4.000000
  0.083333  0.500000  0.250000      8.000000
  0.166667  0.500000  0.250000      8.000000
  0.250000  0.500000  0.250000      8.000000
  0.333333  0.500000  0.250000      8.000000
  0.416667  0.500000  0.250000      8.000000
  0.500000  0.500000  0.250000      4.000000
  0.000000  0.333333  0.333333      4.000000
  0.083333  0.333333  0.333333      8.000000
  0.166667  0.333333  0.333333      8.000000
  0.250000  0.333333  0.333333      8.000000
  0.333333  0.333333  0.333333      8.000000
  0.416667  0.333333  0.333333      8.000000
  0.500000  0.333333  0.333333      4.000000
  0.000000  0.416667  0.333333      8.000000
  0.083333  0.416667  0.333333     16.000000
  0.166667  0.416667  0.333333     16.000000
  0.250000  0.416667  0.333333     16.000000
  0.333333  0.416667  0.333333     16.000000
  0.416667  0.416667  0.333333     16.000000
  0.500000  0.416667  0.333333      8.000000
  0.000000  0.500000  0.333333      4.000000
  0.083333  0.500000  0.333333      8.000000
  0.166667  0.500000  0.333333      8.000000
  0.250000  0.500000  0.333333      8.000000
  0.333333  0.500000  0.333333      8.000000
  0.416667  0.500000  0.333333      8.000000
  0.500000  0.500000  0.333333      4.000000
  0.000000  0.416667  0.416667      4.000000
  0.083333  0.416667  0.416667      8.000000
  0.166667  0.416667  0.416667      8.000000
  0.250000  0.416667  0.416667      8.000000
  0.333333  0.416667  0.416667      8.000000
  0.416667  0.416667  0.416667      8.000000
  0.500000  0.416667  0.416667      4.000000
  0.000000  0.500000  0.416667      4.000000
  0.083333  0.500000  0.416667      8.000000
  0.166667  0.500000  0.416667      8.000000
  0.250000  0.500000  0.416667      8.000000
  0.333333  0.500000  0.416667      8.000000
  0.416667  0.500000  0.416667      8.000000
  0.500000  0.500000  0.416667      4.000000
  0.000000  0.500000  0.500000      1.000000
  0.083333  0.500000  0.500000      2.000000
  0.166667  0.500000  0.500000      2.000000
  0.250000  0.500000  0.500000      2.000000
  0.333333  0.500000  0.500000      2.000000
  0.416667  0.500000  0.500000      2.000000
  0.500000  0.500000  0.500000      1.000000
 
 Following cartesian coordinates:
            Coordinates               Weight
  0.000000  0.000000  0.000000      1.000000
  0.009246  0.000000  0.000000      2.000000
  0.018491  0.000000  0.000000      2.000000
  0.027737  0.000000  0.000000      2.000000
  0.036982  0.000000  0.000000      2.000000
  0.046228  0.000000  0.000000      2.000000
  0.055473  0.000000  0.000000      1.000000
  0.000000  0.009246  0.000000      4.000000
  0.009246  0.009246  0.000000      8.000000
  0.018491  0.009246  0.000000      8.000000
  0.027737  0.009246  0.000000      8.000000
  0.036982  0.009246  0.000000      8.000000
  0.046228  0.009246  0.000000      8.000000
  0.055473  0.009246  0.000000      4.000000
  0.000000  0.018491  0.000000      4.000000
  0.009246  0.018491  0.000000      8.000000
  0.018491  0.018491  0.000000      8.000000
  0.027737  0.018491  0.000000      8.000000
  0.036982  0.018491  0.000000      8.000000
  0.046228  0.018491  0.000000      8.000000
  0.055473  0.018491  0.000000      4.000000
  0.000000  0.027737  0.000000      4.000000
  0.009246  0.027737  0.000000      8.000000
  0.018491  0.027737  0.000000      8.000000
  0.027737  0.027737  0.000000      8.000000
  0.036982  0.027737  0.000000      8.000000
  0.046228  0.027737  0.000000      8.000000
  0.055473  0.027737  0.000000      4.000000
  0.000000  0.036982  0.000000      4.000000
  0.009246  0.036982  0.000000      8.000000
  0.018491  0.036982  0.000000      8.000000
  0.027737  0.036982  0.000000      8.000000
  0.036982  0.036982  0.000000      8.000000
  0.046228  0.036982  0.000000      8.000000
  0.055473  0.036982  0.000000      4.000000
  0.000000  0.046228  0.000000      4.000000
  0.009246  0.046228  0.000000      8.000000
  0.018491  0.046228  0.000000      8.000000
  0.027737  0.046228  0.000000      8.000000
  0.036982  0.046228  0.000000      8.000000
  0.046228  0.046228  0.000000      8.000000
  0.055473  0.046228  0.000000      4.000000
  0.000000  0.055473  0.000000      2.000000
  0.009246  0.055473  0.000000      4.000000
  0.018491  0.055473  0.000000      4.000000
  0.027737  0.055473  0.000000      4.000000
  0.036982  0.055473  0.000000      4.000000
  0.046228  0.055473  0.000000      4.000000
  0.055473  0.055473  0.000000      2.000000
  0.000000  0.009246  0.009246      4.000000
  0.009246  0.009246  0.009246      8.000000
  0.018491  0.009246  0.009246      8.000000
  0.027737  0.009246  0.009246      8.000000
  0.036982  0.009246  0.009246      8.000000
  0.046228  0.009246  0.009246      8.000000
  0.055473  0.009246  0.009246      4.000000
  0.000000  0.018491  0.009246      8.000000
  0.009246  0.018491  0.009246     16.000000
  0.018491  0.018491  0.009246     16.000000
  0.027737  0.018491  0.009246     16.000000
  0.036982  0.018491  0.009246     16.000000
  0.046228  0.018491  0.009246     16.000000
  0.055473  0.018491  0.009246      8.000000
  0.000000  0.027737  0.009246      8.000000
  0.009246  0.027737  0.009246     16.000000
  0.018491  0.027737  0.009246     16.000000
  0.027737  0.027737  0.009246     16.000000
  0.036982  0.027737  0.009246     16.000000
  0.046228  0.027737  0.009246     16.000000
  0.055473  0.027737  0.009246      8.000000
  0.000000  0.036982  0.009246      8.000000
  0.009246  0.036982  0.009246     16.000000
  0.018491  0.036982  0.009246     16.000000
  0.027737  0.036982  0.009246     16.000000
  0.036982  0.036982  0.009246     16.000000
  0.046228  0.036982  0.009246     16.000000
  0.055473  0.036982  0.009246      8.000000
  0.000000  0.046228  0.009246      8.000000
  0.009246  0.046228  0.009246     16.000000
  0.018491  0.046228  0.009246     16.000000
  0.027737  0.046228  0.009246     16.000000
  0.036982  0.046228  0.009246     16.000000
  0.046228  0.046228  0.009246     16.000000
  0.055473  0.046228  0.009246      8.000000
  0.000000  0.055473  0.009246      4.000000
  0.009246  0.055473  0.009246      8.000000
  0.018491  0.055473  0.009246      8.000000
  0.027737  0.055473  0.009246      8.000000
  0.036982  0.055473  0.009246      8.000000
  0.046228  0.055473  0.009246      8.000000
  0.055473  0.055473  0.009246      4.000000
  0.000000  0.018491  0.018491      4.000000
  0.009246  0.018491  0.018491      8.000000
  0.018491  0.018491  0.018491      8.000000
  0.027737  0.018491  0.018491      8.000000
  0.036982  0.018491  0.018491      8.000000
  0.046228  0.018491  0.018491      8.000000
  0.055473  0.018491  0.018491      4.000000
  0.000000  0.027737  0.018491      8.000000
  0.009246  0.027737  0.018491     16.000000
  0.018491  0.027737  0.018491     16.000000
  0.027737  0.027737  0.018491     16.000000
  0.036982  0.027737  0.018491     16.000000
  0.046228  0.027737  0.018491     16.000000
  0.055473  0.027737  0.018491      8.000000
  0.000000  0.036982  0.018491      8.000000
  0.009246  0.036982  0.018491     16.000000
  0.018491  0.036982  0.018491     16.000000
  0.027737  0.036982  0.018491     16.000000
  0.036982  0.036982  0.018491     16.000000
  0.046228  0.036982  0.018491     16.000000
  0.055473  0.036982  0.018491      8.000000
  0.000000  0.046228  0.018491      8.000000
  0.009246  0.046228  0.018491     16.000000
  0.018491  0.046228  0.018491     16.000000
  0.027737  0.046228  0.018491     16.000000
  0.036982  0.046228  0.018491     16.000000
  0.046228  0.046228  0.018491     16.000000
  0.055473  0.046228  0.018491      8.000000
  0.000000  0.055473  0.018491      4.000000
  0.009246  0.055473  0.018491      8.000000
  0.018491  0.055473  0.018491      8.000000
  0.027737  0.055473  0.018491      8.000000
  0.036982  0.055473  0.018491      8.000000
  0.046228  0.055473  0.018491      8.000000
  0.055473  0.055473  0.018491      4.000000
  0.000000  0.027737  0.027737      4.000000
  0.009246  0.027737  0.027737      8.000000
  0.018491  0.027737  0.027737      8.000000
  0.027737  0.027737  0.027737      8.000000
  0.036982  0.027737  0.027737      8.000000
  0.046228  0.027737  0.027737      8.000000
  0.055473  0.027737  0.027737      4.000000
  0.000000  0.036982  0.027737      8.000000
  0.009246  0.036982  0.027737     16.000000
  0.018491  0.036982  0.027737     16.000000
  0.027737  0.036982  0.027737     16.000000
  0.036982  0.036982  0.027737     16.000000
  0.046228  0.036982  0.027737     16.000000
  0.055473  0.036982  0.027737      8.000000
  0.000000  0.046228  0.027737      8.000000
  0.009246  0.046228  0.027737     16.000000
  0.018491  0.046228  0.027737     16.000000
  0.027737  0.046228  0.027737     16.000000
  0.036982  0.046228  0.027737     16.000000
  0.046228  0.046228  0.027737     16.000000
  0.055473  0.046228  0.027737      8.000000
  0.000000  0.055473  0.027737      4.000000
  0.009246  0.055473  0.027737      8.000000
  0.018491  0.055473  0.027737      8.000000
  0.027737  0.055473  0.027737      8.000000
  0.036982  0.055473  0.027737      8.000000
  0.046228  0.055473  0.027737      8.000000
  0.055473  0.055473  0.027737      4.000000
  0.000000  0.036982  0.036982      4.000000
  0.009246  0.036982  0.036982      8.000000
  0.018491  0.036982  0.036982      8.000000
  0.027737  0.036982  0.036982      8.000000
  0.036982  0.036982  0.036982      8.000000
  0.046228  0.036982  0.036982      8.000000
  0.055473  0.036982  0.036982      4.000000
  0.000000  0.046228  0.036982      8.000000
  0.009246  0.046228  0.036982     16.000000
  0.018491  0.046228  0.036982     16.000000
  0.027737  0.046228  0.036982     16.000000
  0.036982  0.046228  0.036982     16.000000
  0.046228  0.046228  0.036982     16.000000
  0.055473  0.046228  0.036982      8.000000
  0.000000  0.055473  0.036982      4.000000
  0.009246  0.055473  0.036982      8.000000
  0.018491  0.055473  0.036982      8.000000
  0.027737  0.055473  0.036982      8.000000
  0.036982  0.055473  0.036982      8.000000
  0.046228  0.055473  0.036982      8.000000
  0.055473  0.055473  0.036982      4.000000
  0.000000  0.046228  0.046228      4.000000
  0.009246  0.046228  0.046228      8.000000
  0.018491  0.046228  0.046228      8.000000
  0.027737  0.046228  0.046228      8.000000
  0.036982  0.046228  0.046228      8.000000
  0.046228  0.046228  0.046228      8.000000
  0.055473  0.046228  0.046228      4.000000
  0.000000  0.055473  0.046228      4.000000
  0.009246  0.055473  0.046228      8.000000
  0.018491  0.055473  0.046228      8.000000
  0.027737  0.055473  0.046228      8.000000
  0.036982  0.055473  0.046228      8.000000
  0.046228  0.055473  0.046228      8.000000
  0.055473  0.055473  0.046228      4.000000
  0.000000  0.055473  0.055473      1.000000
  0.009246  0.055473  0.055473      2.000000
  0.018491  0.055473  0.055473      2.000000
  0.027737  0.055473  0.055473      2.000000
  0.036982  0.055473  0.055473      2.000000
  0.046228  0.055473  0.055473      2.000000
  0.055473  0.055473  0.055473      1.000000
 


--------------------------------------------------------------------------------------------------------




 Dimension of arrays:
   k-Points           NKPTS =    196   number of bands    NBANDS=    216
   number of dos      NEDOS =    301   number of ions     NIONS =     32
   non local maximal  LDIM  =      6   non local SUM 2l+1 LMDIM =     18
   total plane-waves  NPLWV = 592704
   max r-space proj   IRMAX =      1   max aug-charges    IRDMAX= 396145
   dimension x,y,z NGX =    84 NGY =   84 NGZ =   84
   dimension x,y,z NGXF=   168 NGYF=  168 NGZF=  168
   support grid    NGXF=   336 NGYF=  336 NGZF=  336
   ions per type =              32
 NGX,Y,Z   is equivalent  to a cutoff of  15.49, 15.49, 15.49 a.u.
 NGXF,Y,Z  is equivalent  to a cutoff of  30.99, 30.99, 30.99 a.u.


 I would recommend the setting:
   dimension x,y,z NGX =    81 NGY =   81 NGZ =   81
 SYSTEM =  unknown system                          
 POSCAR =  Au                                      

 Startparameter for this run:
   NWRITE =      2    write-flag & timer
   PREC   = accura    medium, high low
   ISTART =      0    job   : 0-new  1-cont  2-samecut
   ICHARG =      2    charge: 1-file 2-atom 10-const
   ISPIN  =      1    spin polarized calculation?
   LNONCOLLINEAR =      F non collinear calculations
   LSORBIT =      F    spin-orbit coupling
   INIWAV =      1    electr: 0-lowe 1-rand  2-diag
   LASPH  =      F    aspherical Exc in radial PAW
   METAGGA=      F    non-selfconsistent MetaGGA calc.

 Electronic Relaxation 1
   ENCUT  =  750.0 eV  55.12 Ry    7.42 a.u.  20.13 20.13 20.13*2*pi/ulx,y,z
   ENINI  =  750.0     initial cutoff
   ENAUG  =  356.7 eV  augmentation charge cutoff
   NELM   =     60;   NELMIN=  2; NELMDL=  0     # of ELM steps 
   EDIFF  = 0.1E-07   stopping-criterion for ELM
   LREAL  =      F    real-space projection
   LCOMPAT=      F    compatible to vasp.4.4
   LREAL_COMPAT= F    compatible to vasp.4.5.1-3
   GGA_COMPAT  = T    GGA compatible to vasp.4.4-vasp.4.6
   LMAXPAW     = -100 max onsite density
   LMAXMIX     =    2 max onsite mixed and CHGCAR
   VOSKOWN=      0    Vosko Wilk Nusair interpolation
   ROPT   =    0.00000
 Ionic relaxation
   EDIFFG = 0.1E-06   stopping-criterion for IOM
   NSW    =      0    number of steps for IOM
   NBLOCK =      1;   KBLOCK =      1    inner block; outer block 
   IBRION =     -1    ionic relax: 0-MD 1-quasi-New 2-CG
   NFREE  =      0    steps in history (QN), initial steepest desc. (CG)
   ISIF   =      2    stress and relaxation
   IWAVPR =     10    prediction:  0-non 1-charg 2-wave 3-comb
   ISYM   =      2    0-nonsym 1-usesym 2-fastsym
   LCORR  =      T    Harris-Foulkes like correction to forces

   POTIM  =   0.50    time-step for ionic-motion
   TEIN   =    0.0    initial temperature
   TEBEG  =    0.0;   TEEND  =   0.0 temperature during run
   SMASS  =  -3.00    Nose mass-parameter (am)
   estimated Nose-frequenzy (Omega)   =  0.10E-29 period in steps =****** mass=  -0.186E-26a.u.
   NPACO  =    256;   APACO  = 16.0  distance and # of slots for P.C.
   PSTRESS=    0.0 pullay stress

  Mass of Ions in am
   POMASS = 196.97
  Ionic Valenz
   ZVAL   =  11.00
  Atomic Wigner-Seitz radii
   RWIGS  =  -1.00
   NELECT =     352.0000    total number of electrons
   NUPDOWN=      -1.0000    fix difference up-down

 DOS related values:
   EMIN   =  10.00;   EMAX   =-10.00  energy-range for DOS
   ISMEAR =     0;   SIGMA  =   0.01  broadening in eV -4-tet -1-fermi 0-gaus

 Electronic relaxation 2 (details)
   IALGO  =     38    algorithm
   LDIAG  =      T    sub-space diagonalisation
   IMIX   =      4    mixing-type and parameters
     AMIX     =   0.40;   BMIX     =  1.00
     AMIX_MAG =   1.60;   BMIX_MAG =  1.00
     AMIN     =   0.10
     WC   =   100.;   INIMIX=   1;  MIXPRE=   1

 Intra band minimization:
   WEIMIN = 0.0000     energy-eigenvalue tresh-hold
   EBREAK =  0.12E-10  absolut break condition
   DEPER  =   0.30     relativ break condition  

   TIME   =   0.10     timestep for ELM

  volume/ion in A,a.u.               =      22.88       154.42
  Fermi-wavevector in a.u.,eV,Ry     =   1.282436 22.376710  1.644642

 Second variation
   LSECVAR=     F    do a second variation
 
 Write flags
   LWAVE  =      F    write WAVECAR
   LCHARG =      F    write CHGCAR
   LVTOT  =      F    write LOCPOT, local potential
   LELF   =      F    write electronic localiz. function (ELF)
   LORBIT =      0    0 simple, 1 ext, 2 COOP (PROOUT)


 Dipole corrections
   IDIPOL =      0    1-x, 2-y, 3-z
   LDIPOL =      F    correct potential



--------------------------------------------------------------------------------------------------------


 Static calculation
 charge density will be updated during run
 non-spin polarized calculation
 Variant of blocked Davidson
 Davidson routine will perform the subspace rotation
 performe sub-space diagonalisation
    after iterative eigenvector-optimisation
 modified Broyden-mixing scheme, WC =      100.0
 initial mixing is a Kerker type mixing with AMIX =  0.4000 and BMIX =      1.0000
 Hartree-type preconditioning will be used
 using additional bands           40
 reciprocal scheme for non local part
 use partial core corrections
 calculate Harris-corrections to forces 
   (improved forces if not selfconsistent)
 use gradient corrections 
 use of overlap-Matrix (Vanderbilt PP)
 Gauss-broadening in eV      SIGMA  =   0.01


--------------------------------------------------------------------------------------------------------


  energy-cutoff  :      750.00
  volume of cell :      732.25
      direct lattice vectors                 reciprocal lattice vectors
     9.013360109  0.000000000  0.000000000     0.110946416  0.000000000  0.000000000
     0.000000000  9.013360109  0.000000000     0.000000000  0.110946416  0.000000000
     0.000000000  0.000000000  9.013360109     0.000000000  0.000000000  0.110946416

  length of vectors
     9.013360109  9.013360109  9.013360109     0.110946416  0.110946416  0.110946416


 
 k-points in units of 2pi/SCALE and weight: Automatic mesh                          
   0.00000000  0.00000000  0.00000000       0.001
   0.00924553  0.00000000  0.00000000       0.001
   0.01849107  0.00000000  0.00000000       0.001
   0.02773660  0.00000000  0.00000000       0.001
   0.03698214  0.00000000  0.00000000       0.001
   0.04622767  0.00000000  0.00000000       0.001
   0.05547321  0.00000000  0.00000000       0.001
   0.00000000  0.00924553  0.00000000       0.002
   0.00924553  0.00924553  0.00000000       0.005
   0.01849107  0.00924553  0.00000000       0.005
   0.02773660  0.00924553  0.00000000       0.005
   0.03698214  0.00924553  0.00000000       0.005
   0.04622767  0.00924553  0.00000000       0.005
   0.05547321  0.00924553  0.00000000       0.002
   0.00000000  0.01849107  0.00000000       0.002
   0.00924553  0.01849107  0.00000000       0.005
   0.01849107  0.01849107  0.00000000       0.005
   0.02773660  0.01849107  0.00000000       0.005
   0.03698214  0.01849107  0.00000000       0.005
   0.04622767  0.01849107  0.00000000       0.005
   0.05547321  0.01849107  0.00000000       0.002
   0.00000000  0.02773660  0.00000000       0.002
   0.00924553  0.02773660  0.00000000       0.005
   0.01849107  0.02773660  0.00000000       0.005
   0.02773660  0.02773660  0.00000000       0.005
   0.03698214  0.02773660  0.00000000       0.005
   0.04622767  0.02773660  0.00000000       0.005
   0.05547321  0.02773660  0.00000000       0.002
   0.00000000  0.03698214  0.00000000       0.002
   0.00924553  0.03698214  0.00000000       0.005
   0.01849107  0.03698214  0.00000000       0.005
   0.02773660  0.03698214  0.00000000       0.005
   0.03698214  0.03698214  0.00000000       0.005
   0.04622767  0.03698214  0.00000000       0.005
   0.05547321  0.03698214  0.00000000       0.002
   0.00000000  0.04622767  0.00000000       0.002
   0.00924553  0.04622767  0.00000000       0.005
   0.01849107  0.04622767  0.00000000       0.005
   0.02773660  0.04622767  0.00000000       0.005
   0.03698214  0.04622767  0.00000000       0.005
   0.04622767  0.04622767  0.00000000       0.005
   0.05547321  0.04622767  0.00000000       0.002
   0.00000000  0.05547321  0.00000000       0.001
   0.00924553  0.05547321  0.00000000       0.002
   0.01849107  0.05547321  0.00000000       0.002
   0.02773660  0.05547321  0.00000000       0.002
   0.03698214  0.05547321  0.00000000       0.002
   0.04622767  0.05547321  0.00000000       0.002
   0.05547321  0.05547321  0.00000000       0.001
   0.00000000  0.00924553  0.00924553       0.002
   0.00924553  0.00924553  0.00924553       0.005
   0.01849107  0.00924553  0.00924553       0.005
   0.02773660  0.00924553  0.00924553       0.005
   0.03698214  0.00924553  0.00924553       0.005
   0.04622767  0.00924553  0.00924553       0.005
   0.05547321  0.00924553  0.00924553       0.002
   0.00000000  0.01849107  0.00924553       0.005
   0.00924553  0.01849107  0.00924553       0.009
   0.01849107  0.01849107  0.00924553       0.009
   0.02773660  0.01849107  0.00924553       0.009
   0.03698214  0.01849107  0.00924553       0.009
   0.04622767  0.01849107  0.00924553       0.009
   0.05547321  0.01849107  0.00924553       0.005
   0.00000000  0.02773660  0.00924553       0.005
   0.00924553  0.02773660  0.00924553       0.009
   0.01849107  0.02773660  0.00924553       0.009
   0.02773660  0.02773660  0.00924553       0.009
   0.03698214  0.02773660  0.00924553       0.009
   0.04622767  0.02773660  0.00924553       0.009
   0.05547321  0.02773660  0.00924553       0.005
   0.00000000  0.03698214  0.00924553       0.005
   0.00924553  0.03698214  0.00924553       0.009
   0.01849107  0.03698214  0.00924553       0.009
   0.02773660  0.03698214  0.00924553       0.009
   0.03698214  0.03698214  0.00924553       0.009
   0.04622767  0.03698214  0.00924553       0.009
   0.05547321  0.03698214  0.00924553       0.005
   0.00000000  0.04622767  0.00924553       0.005
   0.00924553  0.04622767  0.00924553       0.009
   0.01849107  0.04622767  0.00924553       0.009
   0.02773660  0.04622767  0.00924553       0.009
   0.03698214  0.04622767  0.00924553       0.009
   0.04622767  0.04622767  0.00924553       0.009
   0.05547321  0.04622767  0.00924553       0.005
   0.00000000  0.05547321  0.00924553       0.002
   0.00924553  0.05547321  0.00924553       0.005
   0.01849107  0.05547321  0.00924553       0.005
   0.02773660  0.05547321  0.00924553       0.005
   0.03698214  0.05547321  0.00924553       0.005
   0.04622767  0.05547321  0.00924553       0.005
   0.05547321  0.05547321  0.00924553       0.002
   0.00000000  0.01849107  0.01849107       0.002
   0.00924553  0.01849107  0.01849107       0.005
   0.01849107  0.01849107  0.01849107       0.005
   0.02773660  0.01849107  0.01849107       0.005
   0.03698214  0.01849107  0.01849107       0.005
   0.04622767  0.01849107  0.01849107       0.005
   0.05547321  0.01849107  0.01849107       0.002
   0.00000000  0.02773660  0.01849107       0.005
   0.00924553  0.02773660  0.01849107       0.009
   0.01849107  0.02773660  0.01849107       0.009
   0.02773660  0.02773660  0.01849107       0.009
   0.03698214  0.02773660  0.01849107       0.009
   0.04622767  0.02773660  0.01849107       0.009
   0.05547321  0.02773660  0.01849107       0.005
   0.00000000  0.03698214  0.01849107       0.005
   0.00924553  0.03698214  0.01849107       0.009
   0.01849107  0.03698214  0.01849107       0.009
   0.02773660  0.03698214  0.01849107       0.009
   0.03698214  0.03698214  0.01849107       0.009
   0.04622767  0.03698214  0.01849107       0.009
   0.05547321  0.03698214  0.01849107       0.005
   0.00000000  0.04622767  0.01849107       0.005
   0.00924553  0.04622767  0.01849107       0.009
   0.01849107  0.04622767  0.01849107       0.009
   0.02773660  0.04622767  0.01849107       0.009
   0.03698214  0.04622767  0.01849107       0.009
   0.04622767  0.04622767  0.01849107       0.009
   0.05547321  0.04622767  0.01849107       0.005
   0.00000000  0.05547321  0.01849107       0.002
   0.00924553  0.05547321  0.01849107       0.005
   0.01849107  0.05547321  0.01849107       0.005
   0.02773660  0.05547321  0.01849107       0.005
   0.03698214  0.05547321  0.01849107       0.005
   0.04622767  0.05547321  0.01849107       0.005
   0.05547321  0.05547321  0.01849107       0.002
   0.00000000  0.02773660  0.02773660       0.002
   0.00924553  0.02773660  0.02773660       0.005
   0.01849107  0.02773660  0.02773660       0.005
   0.02773660  0.02773660  0.02773660       0.005
   0.03698214  0.02773660  0.02773660       0.005
   0.04622767  0.02773660  0.02773660       0.005
   0.05547321  0.02773660  0.02773660       0.002
   0.00000000  0.03698214  0.02773660       0.005
   0.00924553  0.03698214  0.02773660       0.009
   0.01849107  0.03698214  0.02773660       0.009
   0.02773660  0.03698214  0.02773660       0.009
   0.03698214  0.03698214  0.02773660       0.009
   0.04622767  0.03698214  0.02773660       0.009
   0.05547321  0.03698214  0.02773660       0.005
   0.00000000  0.04622767  0.02773660       0.005
   0.00924553  0.04622767  0.02773660       0.009
   0.01849107  0.04622767  0.02773660       0.009
   0.02773660  0.04622767  0.02773660       0.009
   0.03698214  0.04622767  0.02773660       0.009
   0.04622767  0.04622767  0.02773660       0.009
   0.05547321  0.04622767  0.02773660       0.005
   0.00000000  0.05547321  0.02773660       0.002
   0.00924553  0.05547321  0.02773660       0.005
   0.01849107  0.05547321  0.02773660       0.005
   0.02773660  0.05547321  0.02773660       0.005
   0.03698214  0.05547321  0.02773660       0.005
   0.04622767  0.05547321  0.02773660       0.005
   0.05547321  0.05547321  0.02773660       0.002
   0.00000000  0.03698214  0.03698214       0.002
   0.00924553  0.03698214  0.03698214       0.005
   0.01849107  0.03698214  0.03698214       0.005
   0.02773660  0.03698214  0.03698214       0.005
   0.03698214  0.03698214  0.03698214       0.005
   0.04622767  0.03698214  0.03698214       0.005
   0.05547321  0.03698214  0.03698214       0.002
   0.00000000  0.04622767  0.03698214       0.005
   0.00924553  0.04622767  0.03698214       0.009
   0.01849107  0.04622767  0.03698214       0.009
   0.02773660  0.04622767  0.03698214       0.009
   0.03698214  0.04622767  0.03698214       0.009
   0.04622767  0.04622767  0.03698214       0.009
   0.05547321  0.04622767  0.03698214       0.005
   0.00000000  0.05547321  0.03698214       0.002
   0.00924553  0.05547321  0.03698214       0.005
   0.01849107  0.05547321  0.03698214       0.005
   0.02773660  0.05547321  0.03698214       0.005
   0.03698214  0.05547321  0.03698214       0.005
   0.04622767  0.05547321  0.03698214       0.005
   0.05547321  0.05547321  0.03698214       0.002
   0.00000000  0.04622767  0.04622767       0.002
   0.00924553  0.04622767  0.04622767       0.005
   0.01849107  0.04622767  0.04622767       0.005
   0.02773660  0.04622767  0.04622767       0.005
   0.03698214  0.04622767  0.04622767       0.005
   0.04622767  0.04622767  0.04622767       0.005
   0.05547321  0.04622767  0.04622767       0.002
   0.00000000  0.05547321  0.04622767       0.002
   0.00924553  0.05547321  0.04622767       0.005
   0.01849107  0.05547321  0.04622767       0.005
   0.02773660  0.05547321  0.04622767       0.005
   0.03698214  0.05547321  0.04622767       0.005
   0.04622767  0.05547321  0.04622767       0.005
   0.05547321  0.05547321  0.04622767       0.002
   0.00000000  0.05547321  0.05547321       0.001
   0.00924553  0.05547321  0.05547321       0.001
   0.01849107  0.05547321  0.05547321       0.001
   0.02773660  0.05547321  0.05547321       0.001
   0.03698214  0.05547321  0.05547321       0.001
   0.04622767  0.05547321  0.05547321       0.001
   0.05547321  0.05547321  0.05547321       0.001
 
 k-points in reciprocal lattice and weights: Automatic mesh                          
   0.00000000  0.00000000  0.00000000       0.001
   0.08333333  0.00000000  0.00000000       0.001
   0.16666667  0.00000000  0.00000000       0.001
   0.25000000  0.00000000  0.00000000       0.001
   0.33333333  0.00000000  0.00000000       0.001
   0.41666667  0.00000000  0.00000000       0.001
   0.50000000  0.00000000  0.00000000       0.001
   0.00000000  0.08333333  0.00000000       0.002
   0.08333333  0.08333333  0.00000000       0.005
   0.16666667  0.08333333  0.00000000       0.005
   0.25000000  0.08333333  0.00000000       0.005
   0.33333333  0.08333333  0.00000000       0.005
   0.41666667  0.08333333  0.00000000       0.005
   0.50000000  0.08333333  0.00000000       0.002
   0.00000000  0.16666667  0.00000000       0.002
   0.08333333  0.16666667  0.00000000       0.005
   0.16666667  0.16666667  0.00000000       0.005
   0.25000000  0.16666667  0.00000000       0.005
   0.33333333  0.16666667  0.00000000       0.005
   0.41666667  0.16666667  0.00000000       0.005
   0.50000000  0.16666667  0.00000000       0.002
   0.00000000  0.25000000  0.00000000       0.002
   0.08333333  0.25000000  0.00000000       0.005
   0.16666667  0.25000000  0.00000000       0.005
   0.25000000  0.25000000  0.00000000       0.005
   0.33333333  0.25000000  0.00000000       0.005
   0.41666667  0.25000000  0.00000000       0.005
   0.50000000  0.25000000  0.00000000       0.002
   0.00000000  0.33333333  0.00000000       0.002
   0.08333333  0.33333333  0.00000000       0.005
   0.16666667  0.33333333  0.00000000       0.005
   0.25000000  0.33333333  0.00000000       0.005
   0.33333333  0.33333333  0.00000000       0.005
   0.41666667  0.33333333  0.00000000       0.005
   0.50000000  0.33333333  0.00000000       0.002
   0.00000000  0.41666667  0.00000000       0.002
   0.08333333  0.41666667  0.00000000       0.005
   0.16666667  0.41666667  0.00000000       0.005
   0.25000000  0.41666667  0.00000000       0.005
   0.33333333  0.41666667  0.00000000       0.005
   0.41666667  0.41666667  0.00000000       0.005
   0.50000000  0.41666667  0.00000000       0.002
   0.00000000  0.50000000  0.00000000       0.001
   0.08333333  0.50000000  0.00000000       0.002
   0.16666667  0.50000000  0.00000000       0.002
   0.25000000  0.50000000  0.00000000       0.002
   0.33333333  0.50000000  0.00000000       0.002
   0.41666667  0.50000000  0.00000000       0.002
   0.50000000  0.50000000  0.00000000       0.001
   0.00000000  0.08333333  0.08333333       0.002
   0.08333333  0.08333333  0.08333333       0.005
   0.16666667  0.08333333  0.08333333       0.005
   0.25000000  0.08333333  0.08333333       0.005
   0.33333333  0.08333333  0.08333333       0.005
   0.41666667  0.08333333  0.08333333       0.005
   0.50000000  0.08333333  0.08333333       0.002
   0.00000000  0.16666667  0.08333333       0.005
   0.08333333  0.16666667  0.08333333       0.009
   0.16666667  0.16666667  0.08333333       0.009
   0.25000000  0.16666667  0.08333333       0.009
   0.33333333  0.16666667  0.08333333       0.009
   0.41666667  0.16666667  0.08333333       0.009
   0.50000000  0.16666667  0.08333333       0.005
   0.00000000  0.25000000  0.08333333       0.005
   0.08333333  0.25000000  0.08333333       0.009
   0.16666667  0.25000000  0.08333333       0.009
   0.25000000  0.25000000  0.08333333       0.009
   0.33333333  0.25000000  0.08333333       0.009
   0.41666667  0.25000000  0.08333333       0.009
   0.50000000  0.25000000  0.08333333       0.005
   0.00000000  0.33333333  0.08333333       0.005
   0.08333333  0.33333333  0.08333333       0.009
   0.16666667  0.33333333  0.08333333       0.009
   0.25000000  0.33333333  0.08333333       0.009
   0.33333333  0.33333333  0.08333333       0.009
   0.41666667  0.33333333  0.08333333       0.009
   0.50000000  0.33333333  0.08333333       0.005
   0.00000000  0.41666667  0.08333333       0.005
   0.08333333  0.41666667  0.08333333       0.009
   0.16666667  0.41666667  0.08333333       0.009
   0.25000000  0.41666667  0.08333333       0.009
   0.33333333  0.41666667  0.08333333       0.009
   0.41666667  0.41666667  0.08333333       0.009
   0.50000000  0.41666667  0.08333333       0.005
   0.00000000  0.50000000  0.08333333       0.002
   0.08333333  0.50000000  0.08333333       0.005
   0.16666667  0.50000000  0.08333333       0.005
   0.25000000  0.50000000  0.08333333       0.005
   0.33333333  0.50000000  0.08333333       0.005
   0.41666667  0.50000000  0.08333333       0.005
   0.50000000  0.50000000  0.08333333       0.002
   0.00000000  0.16666667  0.16666667       0.002
   0.08333333  0.16666667  0.16666667       0.005
   0.16666667  0.16666667  0.16666667       0.005
   0.25000000  0.16666667  0.16666667       0.005
   0.33333333  0.16666667  0.16666667       0.005
   0.41666667  0.16666667  0.16666667       0.005
   0.50000000  0.16666667  0.16666667       0.002
   0.00000000  0.25000000  0.16666667       0.005
   0.08333333  0.25000000  0.16666667       0.009
   0.16666667  0.25000000  0.16666667       0.009
   0.25000000  0.25000000  0.16666667       0.009
   0.33333333  0.25000000  0.16666667       0.009
   0.41666667  0.25000000  0.16666667       0.009
   0.50000000  0.25000000  0.16666667       0.005
   0.00000000  0.33333333  0.16666667       0.005
   0.08333333  0.33333333  0.16666667       0.009
   0.16666667  0.33333333  0.16666667       0.009
   0.25000000  0.33333333  0.16666667       0.009
   0.33333333  0.33333333  0.16666667       0.009
   0.41666667  0.33333333  0.16666667       0.009
   0.50000000  0.33333333  0.16666667       0.005
   0.00000000  0.41666667  0.16666667       0.005
   0.08333333  0.41666667  0.16666667       0.009
   0.16666667  0.41666667  0.16666667       0.009
   0.25000000  0.41666667  0.16666667       0.009
   0.33333333  0.41666667  0.16666667       0.009
   0.41666667  0.41666667  0.16666667       0.009
   0.50000000  0.41666667  0.16666667       0.005
   0.00000000  0.50000000  0.16666667       0.002
   0.08333333  0.50000000  0.16666667       0.005
   0.16666667  0.50000000  0.16666667       0.005
   0.25000000  0.50000000  0.16666667       0.005
   0.33333333  0.50000000  0.16666667       0.005
   0.41666667  0.50000000  0.16666667       0.005
   0.50000000  0.50000000  0.16666667       0.002
   0.00000000  0.25000000  0.25000000       0.002
   0.08333333  0.25000000  0.25000000       0.005
   0.16666667  0.25000000  0.25000000       0.005
   0.25000000  0.25000000  0.25000000       0.005
   0.33333333  0.25000000  0.25000000       0.005
   0.41666667  0.25000000  0.25000000       0.005
   0.50000000  0.25000000  0.25000000       0.002
   0.00000000  0.33333333  0.25000000       0.005
   0.08333333  0.33333333  0.25000000       0.009
   0.16666667  0.33333333  0.25000000       0.009
   0.25000000  0.33333333  0.25000000       0.009
   0.33333333  0.33333333  0.25000000       0.009
   0.41666667  0.33333333  0.25000000       0.009
   0.50000000  0.33333333  0.25000000       0.005
   0.00000000  0.41666667  0.25000000       0.005
   0.08333333  0.41666667  0.25000000       0.009
   0.16666667  0.41666667  0.25000000       0.009
   0.25000000  0.41666667  0.25000000       0.009
   0.33333333  0.41666667  0.25000000       0.009
   0.41666667  0.41666667  0.25000000       0.009
   0.50000000  0.41666667  0.25000000       0.005
   0.00000000  0.50000000  0.25000000       0.002
   0.08333333  0.50000000  0.25000000       0.005
   0.16666667  0.50000000  0.25000000       0.005
   0.25000000  0.50000000  0.25000000       0.005
   0.33333333  0.50000000  0.25000000       0.005
   0.41666667  0.50000000  0.25000000       0.005
   0.50000000  0.50000000  0.25000000       0.002
   0.00000000  0.33333333  0.33333333       0.002
   0.08333333  0.33333333  0.33333333       0.005
   0.16666667  0.33333333  0.33333333       0.005
   0.25000000  0.33333333  0.33333333       0.005
   0.33333333  0.33333333  0.33333333       0.005
   0.41666667  0.33333333  0.33333333       0.005
   0.50000000  0.33333333  0.33333333       0.002
   0.00000000  0.41666667  0.33333333       0.005
   0.08333333  0.41666667  0.33333333       0.009
   0.16666667  0.41666667  0.33333333       0.009
   0.25000000  0.41666667  0.33333333       0.009
   0.33333333  0.41666667  0.33333333       0.009
   0.41666667  0.41666667  0.33333333       0.009
   0.50000000  0.41666667  0.33333333       0.005
   0.00000000  0.50000000  0.33333333       0.002
   0.08333333  0.50000000  0.33333333       0.005
   0.16666667  0.50000000  0.33333333       0.005
   0.25000000  0.50000000  0.33333333       0.005
   0.33333333  0.50000000  0.33333333       0.005
   0.41666667  0.50000000  0.33333333       0.005
   0.50000000  0.50000000  0.33333333       0.002
   0.00000000  0.41666667  0.41666667       0.002
   0.08333333  0.41666667  0.41666667       0.005
   0.16666667  0.41666667  0.41666667       0.005
   0.25000000  0.41666667  0.41666667       0.005
   0.33333333  0.41666667  0.41666667       0.005
   0.41666667  0.41666667  0.41666667       0.005
   0.50000000  0.41666667  0.41666667       0.002
   0.00000000  0.50000000  0.41666667       0.002
   0.08333333  0.50000000  0.41666667       0.005
   0.16666667  0.50000000  0.41666667       0.005
   0.25000000  0.50000000  0.41666667       0.005
   0.33333333  0.50000000  0.41666667       0.005
   0.41666667  0.50000000  0.41666667       0.005
   0.50000000  0.50000000  0.41666667       0.002
   0.00000000  0.50000000  0.50000000       0.001
   0.08333333  0.50000000  0.50000000       0.001
   0.16666667  0.50000000  0.50000000       0.001
   0.25000000  0.50000000  0.50000000       0.001
   0.33333333  0.50000000  0.50000000       0.001
   0.41666667  0.50000000  0.50000000       0.001
   0.50000000  0.50000000  0.50000000       0.001
 
 position of ions in fractional coordinates (direct lattice) 
   0.00110946  0.00000000  0.00000000
   0.50000000  0.00000000  0.00000000
   0.00000000  0.50000000  0.00000000
   0.50000000  0.50000000  0.00000000
   0.00000000  0.00000000  0.50000000
   0.50000000  0.00000000  0.50000000
   0.00000000  0.50000000  0.50000000
   0.50000000  0.50000000  0.50000000
   0.25000000  0.25000000  0.00000000
   0.75000000  0.25000000  0.00000000
   0.25000000  0.75000000  0.00000000
   0.75000000  0.75000000  0.00000000
   0.25000000  0.25000000  0.50000000
   0.75000000  0.25000000  0.50000000
   0.25000000  0.75000000  0.50000000
   0.75000000  0.75000000  0.50000000
   0.25000000  0.00000000  0.25000000
   0.75000000  0.00000000  0.25000000
   0.25000000  0.50000000  0.25000000
   0.75000000  0.50000000  0.25000000
   0.25000000  0.00000000  0.75000000
   0.75000000  0.00000000  0.75000000
   0.25000000  0.50000000  0.75000000
   0.75000000  0.50000000  0.75000000
   0.00000000  0.25000000  0.25000000
   0.50000000  0.25000000  0.25000000
   0.00000000  0.75000000  0.25000000
   0.50000000  0.75000000  0.25000000
   0.00000000  0.25000000  0.75000000
   0.50000000  0.25000000  0.75000000
   0.00000000  0.75000000  0.75000000
   0.50000000  0.75000000  0.75000000
 
 position of ions in cartesian coordinates  (Angst):
   0.01000000  0.00000000  0.00000000
   4.50668005  0.00000000  0.00000000
   0.00000000  4.50668005  0.00000000
   4.50668005  4.50668005  0.00000000
   0.00000000  0.00000000  4.50668005
   4.50668005  0.00000000  4.50668005
   0.00000000  4.50668005  4.50668005
   4.50668005  4.50668005  4.50668005
   2.25334003  2.25334003  0.00000000
   6.76002008  2.25334003  0.00000000
   2.25334003  6.76002008  0.00000000
   6.76002008  6.76002008  0.00000000
   2.25334003  2.25334003  4.50668005
   6.76002008  2.25334003  4.50668005
   2.25334003  6.76002008  4.50668005
   6.76002008  6.76002008  4.50668005
   2.25334003  0.00000000  2.25334003
   6.76002008  0.00000000  2.25334003
   2.25334003  4.50668005  2.25334003
   6.76002008  4.50668005  2.25334003
   2.25334003  0.00000000  6.76002008
   6.76002008  0.00000000  6.76002008
   2.25334003  4.50668005  6.76002008
   6.76002008  4.50668005  6.76002008
   0.00000000  2.25334003  2.25334003
   4.50668005  2.25334003  2.25334003
   0.00000000  6.76002008  2.25334003
   4.50668005  6.76002008  2.25334003
   0.00000000  2.25334003  6.76002008
   4.50668005  2.25334003  6.76002008
   0.00000000  6.76002008  6.76002008
   4.50668005  6.76002008  6.76002008
 


--------------------------------------------------------------------------------------------------------


 k-point  1 :  0.00000.00000.0000  plane waves:  34265
 k-point  2 :  0.08330.00000.0000  plane waves:  34157
 k-point  3 :  0.16670.00000.0000  plane waves:  34164
 k-point  4 :  0.25000.00000.0000  plane waves:  34172
 k-point  5 :  0.33330.00000.0000  plane waves:  34108
 k-point  6 :  0.41670.00000.0000  plane waves:  34128
 k-point  7 :  0.50000.00000.0000  plane waves:  34080
 k-point  8 :  0.00000.08330.0000  plane waves:  34157
 k-point  9 :  0.08330.08330.0000  plane waves:  34141
 k-point 10 :  0.16670.08330.0000  plane waves:  34137
 k-point 11 :  0.25000.08330.0000  plane waves:  34166
 k-point 12 :  0.33330.08330.0000  plane waves:  34148
 k-point 13 :  0.41670.08330.0000  plane waves:  34141
 k-point 14 :  0.50000.08330.0000  plane waves:  34120
 k-point 15 :  0.00000.16670.0000  plane waves:  34164
 k-point 16 :  0.08330.16670.0000  plane waves:  34137
 k-point 17 :  0.16670.16670.0000  plane waves:  34167
 k-point 18 :  0.25000.16670.0000  plane waves:  34145
 k-point 19 :  0.33330.16670.0000  plane waves:  34137
 k-point 20 :  0.41670.16670.0000  plane waves:  34162
 k-point 21 :  0.50000.16670.0000  plane waves:  34132
 k-point 22 :  0.00000.25000.0000  plane waves:  34172
 k-point 23 :  0.08330.25000.0000  plane waves:  34166
 k-point 24 :  0.16670.25000.0000  plane waves:  34145
 k-point 25 :  0.25000.25000.0000  plane waves:  34138
 k-point 26 :  0.33330.25000.0000  plane waves:  34151
 k-point 27 :  0.41670.25000.0000  plane waves:  34163
 k-point 28 :  0.50000.25000.0000  plane waves:  34100
 k-point 29 :  0.00000.33330.0000  plane waves:  34108
 k-point 30 :  0.08330.33330.0000  plane waves:  34148
 k-point 31 :  0.16670.33330.0000  plane waves:  34137
 k-point 32 :  0.25000.33330.0000  plane waves:  34151
 k-point 33 :  0.33330.33330.0000  plane waves:  34150
 k-point 34 :  0.41670.33330.0000  plane waves:  34154
 k-point 35 :  0.50000.33330.0000  plane waves:  34164
 k-point 36 :  0.00000.41670.0000  plane waves:  34128
 k-point 37 :  0.08330.41670.0000  plane waves:  34141
 k-point 38 :  0.16670.41670.0000  plane waves:  34162
 k-point 39 :  0.25000.41670.0000  plane waves:  34163
 k-point 40 :  0.33330.41670.0000  plane waves:  34154
 k-point 41 :  0.41670.41670.0000  plane waves:  34144
 k-point 42 :  0.50000.41670.0000  plane waves:  34132
 k-point 43 :  0.00000.50000.0000  plane waves:  34080
 k-point 44 :  0.08330.50000.0000  plane waves:  34120
 k-point 45 :  0.16670.50000.0000  plane waves:  34132
 k-point 46 :  0.25000.50000.0000  plane waves:  34100
 k-point 47 :  0.33330.50000.0000  plane waves:  34164
 k-point 48 :  0.41670.50000.0000  plane waves:  34132
 k-point 49 :  0.50000.50000.0000  plane waves:  34096
 k-point 50 :  0.00000.08330.0833  plane waves:  34141
 k-point 51 :  0.08330.08330.0833  plane waves:  34151
 k-point 52 :  0.16670.08330.0833  plane waves:  34139
 k-point 53 :  0.25000.08330.0833  plane waves:  34147
 k-point 54 :  0.33330.08330.0833  plane waves:  34134
 k-point 55 :  0.41670.08330.0833  plane waves:  34139
 k-point 56 :  0.50000.08330.0833  plane waves:  34106
 k-point 57 :  0.00000.16670.0833  plane waves:  34137
 k-point 58 :  0.08330.16670.0833  plane waves:  34139
 k-point 59 :  0.16670.16670.0833  plane waves:  34168
 k-point 60 :  0.25000.16670.0833  plane waves:  34147
 k-point 61 :  0.33330.16670.0833  plane waves:  34133
 k-point 62 :  0.41670.16670.0833  plane waves:  34163
 k-point 63 :  0.50000.16670.0833  plane waves:  34126
 k-point 64 :  0.00000.25000.0833  plane waves:  34166
 k-point 65 :  0.08330.25000.0833  plane waves:  34147
 k-point 66 :  0.16670.25000.0833  plane waves:  34147
 k-point 67 :  0.25000.25000.0833  plane waves:  34160
 k-point 68 :  0.33330.25000.0833  plane waves:  34154
 k-point 69 :  0.41670.25000.0833  plane waves:  34144
 k-point 70 :  0.50000.25000.0833  plane waves:  34140
 k-point 71 :  0.00000.33330.0833  plane waves:  34148
 k-point 72 :  0.08330.33330.0833  plane waves:  34134
 k-point 73 :  0.16670.33330.0833  plane waves:  34133
 k-point 74 :  0.25000.33330.0833  plane waves:  34154
 k-point 75 :  0.33330.33330.0833  plane waves:  34170
 k-point 76 :  0.41670.33330.0833  plane waves:  34138
 k-point 77 :  0.50000.33330.0833  plane waves:  34160
 k-point 78 :  0.00000.41670.0833  plane waves:  34141
 k-point 79 :  0.08330.41670.0833  plane waves:  34139
 k-point 80 :  0.16670.41670.0833  plane waves:  34163
 k-point 81 :  0.25000.41670.0833  plane waves:  34144
 k-point 82 :  0.33330.41670.0833  plane waves:  34138
 k-point 83 :  0.41670.41670.0833  plane waves:  34144
 k-point 84 :  0.50000.41670.0833  plane waves:  34136
 k-point 85 :  0.00000.50000.0833  plane waves:  34120
 k-point 86 :  0.08330.50000.0833  plane waves:  34106
 k-point 87 :  0.16670.50000.0833  plane waves:  34126
 k-point 88 :  0.25000.50000.0833  plane waves:  34140
 k-point 89 :  0.33330.50000.0833  plane waves:  34160
 k-point 90 :  0.41670.50000.0833  plane waves:  34136
 k-point 91 :  0.50000.50000.0833  plane waves:  34112
 k-point 92 :  0.00000.16670.1667  plane waves:  34167
 k-point 93 :  0.08330.16670.1667  plane waves:  34168
 k-point 94 :  0.16670.16670.1667  plane waves:  34139
 k-point 95 :  0.25000.16670.1667  plane waves:  34154
 k-point 96 :  0.33330.16670.1667  plane waves:  34141
 k-point 97 :  0.41670.16670.1667  plane waves:  34146
 k-point 98 :  0.50000.16670.1667  plane waves:  34168
 k-point 99 :  0.00000.25000.1667  plane waves:  34145
 k-point ** :  0.08330.25000.1667  plane waves:  34147
 k-point ** :  0.16670.25000.1667  plane waves:  34154
 k-point ** :  0.25000.25000.1667  plane waves:  34147
 k-point ** :  0.33330.25000.1667  plane waves:  34153
 k-point ** :  0.41670.25000.1667  plane waves:  34123
 k-point ** :  0.50000.25000.1667  plane waves:  34134
 k-point ** :  0.00000.33330.1667  plane waves:  34137
 k-point ** :  0.08330.33330.1667  plane waves:  34133
 k-point ** :  0.16670.33330.1667  plane waves:  34141
 k-point ** :  0.25000.33330.1667  plane waves:  34153
 k-point ** :  0.33330.33330.1667  plane waves:  34140
 k-point ** :  0.41670.33330.1667  plane waves:  34134
 k-point ** :  0.50000.33330.1667  plane waves:  34168
 k-point ** :  0.00000.41670.1667  plane waves:  34162
 k-point ** :  0.08330.41670.1667  plane waves:  34163
 k-point ** :  0.16670.41670.1667  plane waves:  34146
 k-point ** :  0.25000.41670.1667  plane waves:  34123
 k-point ** :  0.33330.41670.1667  plane waves:  34134
 k-point ** :  0.41670.41670.1667  plane waves:  34158
 k-point ** :  0.50000.41670.1667  plane waves:  34158
 k-point ** :  0.00000.50000.1667  plane waves:  34132
 k-point ** :  0.08330.50000.1667  plane waves:  34126
 k-point ** :  0.16670.50000.1667  plane waves:  34168
 k-point ** :  0.25000.50000.1667  plane waves:  34134
 k-point ** :  0.33330.50000.1667  plane waves:  34168
 k-point ** :  0.41670.50000.1667  plane waves:  34158
 k-point ** :  0.50000.50000.1667  plane waves:  34128
 k-point ** :  0.00000.25000.2500  plane waves:  34138
 k-point ** :  0.08330.25000.2500  plane waves:  34160
 k-point ** :  0.16670.25000.2500  plane waves:  34147
 k-point ** :  0.25000.25000.2500  plane waves:  34145
 k-point ** :  0.33330.25000.2500  plane waves:  34149
 k-point ** :  0.41670.25000.2500  plane waves:  34150
 k-point ** :  0.50000.25000.2500  plane waves:  34170
 k-point ** :  0.00000.33330.2500  plane waves:  34151
 k-point ** :  0.08330.33330.2500  plane waves:  34154
 k-point ** :  0.16670.33330.2500  plane waves:  34153
 k-point ** :  0.25000.33330.2500  plane waves:  34149
 k-point ** :  0.33330.33330.2500  plane waves:  34136
 k-point ** :  0.41670.33330.2500  plane waves:  34177
 k-point ** :  0.50000.33330.2500  plane waves:  34182
 k-point ** :  0.00000.41670.2500  plane waves:  34163
 k-point ** :  0.08330.41670.2500  plane waves:  34144
 k-point ** :  0.16670.41670.2500  plane waves:  34123
 k-point ** :  0.25000.41670.2500  plane waves:  34150
 k-point ** :  0.33330.41670.2500  plane waves:  34177
 k-point ** :  0.41670.41670.2500  plane waves:  34183
 k-point ** :  0.50000.41670.2500  plane waves:  34190
 k-point ** :  0.00000.50000.2500  plane waves:  34100
 k-point ** :  0.08330.50000.2500  plane waves:  34140
 k-point ** :  0.16670.50000.2500  plane waves:  34134
 k-point ** :  0.25000.50000.2500  plane waves:  34170
 k-point ** :  0.33330.50000.2500  plane waves:  34182
 k-point ** :  0.41670.50000.2500  plane waves:  34190
 k-point ** :  0.50000.50000.2500  plane waves:  34212
 k-point ** :  0.00000.33330.3333  plane waves:  34150
 k-point ** :  0.08330.33330.3333  plane waves:  34170
 k-point ** :  0.16670.33330.3333  plane waves:  34140
 k-point ** :  0.25000.33330.3333  plane waves:  34136
 k-point ** :  0.33330.33330.3333  plane waves:  34154
 k-point ** :  0.41670.33330.3333  plane waves:  34184
 k-point ** :  0.50000.33330.3333  plane waves:  34182
 k-point ** :  0.00000.41670.3333  plane waves:  34154
 k-point ** :  0.08330.41670.3333  plane waves:  34138
 k-point ** :  0.16670.41670.3333  plane waves:  34134
 k-point ** :  0.25000.41670.3333  plane waves:  34177
 k-point ** :  0.33330.41670.3333  plane waves:  34184
 k-point ** :  0.41670.41670.3333  plane waves:  34176
 k-point ** :  0.50000.41670.3333  plane waves:  34208
 k-point ** :  0.00000.50000.3333  plane waves:  34164
 k-point ** :  0.08330.50000.3333  plane waves:  34160
 k-point ** :  0.16670.50000.3333  plane waves:  34168
 k-point ** :  0.25000.50000.3333  plane waves:  34182
 k-point ** :  0.33330.50000.3333  plane waves:  34182
 k-point ** :  0.41670.50000.3333  plane waves:  34208
 k-point ** :  0.50000.50000.3333  plane waves:  34212
 k-point ** :  0.00000.41670.4167  plane waves:  34144
 k-point ** :  0.08330.41670.4167  plane waves:  34144
 k-point ** :  0.16670.41670.4167  plane waves:  34158
 k-point ** :  0.25000.41670.4167  plane waves:  34183
 k-point ** :  0.33330.41670.4167  plane waves:  34176
 k-point ** :  0.41670.41670.4167  plane waves:  34236
 k-point ** :  0.50000.41670.4167  plane waves:  34220
 k-point ** :  0.00000.50000.4167  plane waves:  34132
 k-point ** :  0.08330.50000.4167  plane waves:  34136
 k-point ** :  0.16670.50000.4167  plane waves:  34158
 k-point ** :  0.25000.50000.4167  plane waves:  34190
 k-point ** :  0.33330.50000.4167  plane waves:  34208
 k-point ** :  0.41670.50000.4167  plane waves:  34220
 k-point ** :  0.50000.50000.4167  plane waves:  34240
 k-point ** :  0.00000.50000.5000  plane waves:  34096
 k-point ** :  0.08330.50000.5000  plane waves:  34112
 k-point ** :  0.16670.50000.5000  plane waves:  34128
 k-point ** :  0.25000.50000.5000  plane waves:  34212
 k-point ** :  0.33330.50000.5000  plane waves:  34212
 k-point ** :  0.41670.50000.5000  plane waves:  34240
 k-point ** :  0.50000.50000.5000  plane waves:  34416

 maximum and minimum number of plane-waves per node :  34416 34080

 maximum number of plane-waves:  34416
 maximal index in each direction: 
   IXMAX= 20   IYMAX= 20   IZMAX= 20
   IXMIN=-20   IYMIN=-20   IZMIN=-20

 NGX is ok and might be reduce to  82
 NGY is ok and might be reduce to  82
 NGZ is ok and might be reduce to  82

 parallel 3dFFT wavefunction:
    minimum data exchange during FFTs selected (reduces bandwidth)
 parallel 3dFFT charge:
    minimum data exchange during FFTs selected (reduces bandwidth)

 For storing wavefunctions ******* MBYTES are necessary
 For predicting wavefunctions  248.91 MBYTES are necessary
Broyden mixing: mesh for mixing (old mesh)
   NGX = 41   NGY = 41   NGZ = 41
  (NGX  =168   NGY  =168   NGZ  =168)
 gives a total of  68921 points
 initial charge density was supplied:
 charge density of overlapping atoms calculated
 number of electron  352.0000000 magnetization 
 keeping initial charge density in first step


--------------------------------------------------------------------------------------------------------


 Maximum index for augmentation-charges        48167 (set IRDMAX)


--------------------------------------------------------------------------------------------------------


 First call to EWALD:  gamma=   0.197
 Maximum number of real-space cells 3x 3x 3
 Maximum number of reciprocal cells 3x 3x 3

    FEWALD:  VPU time    0.00: CPU time    0.00


----------------------------------------- Iteration    1(   1)  ---------------------------------------


    POTLOK:  VPU time    0.52: CPU time    0.52
    SETDIJ:  VPU time    0.74: CPU time    0.74
    EDDAV :  VPU time 1790.21: CPU time 1790.34
    DOS   :  VPU time    0.00: CPU time   -0.00
    ------------------------------------------
      LOOP:  VPU time 1791.59: CPU time 1791.72

 eigenvalue-minimisations  : 84672
 total energy-change (2. order) : 0.4314262E+04  (-0.2015978E+05)
 number of electron  352.0000000 magnetization 
 augmentation part   352.0000000 magnetization 

 Free energy of the ion-electron system (eV)
  ---------------------------------------------------
  alpha Z        PSCENC =      2619.00254165
  Ewald energy   TEWEN  =    -28361.60401793
  -1/2 Hartree   DENC   =     -5241.16052202
  -V(xc)+E(xc)   XCENC  =       463.77583196
  PAW double counting   =     23920.39735419   -23172.13309131
  entropy T*S    EENTRO =        -0.00084026
  eigenvalues    EBANDS =      4452.19470149
  atomic energy  EATOM  =     29633.78979189
  ---------------------------------------------------
  free energy    TOTEN  =      4314.26174966 eV

  energy without entropy =     4314.26258992  energy(sigma->0) =     4314.26216979


--------------------------------------------------------------------------------------------------------




----------------------------------------- Iteration    1(   2)  ---------------------------------------


    EDDAV :  VPU time 1782.83: CPU time 1782.51
    DOS   :  VPU time    0.00: CPU time   -0.00
    ------------------------------------------
      LOOP:  VPU time 1782.95: CPU time 1782.63

 eigenvalue-minimisations  : 84704
 total energy-change (2. order) :-0.4146239E+04  (-0.3945786E+04)
 number of electron  352.0000000 magnetization 
 augmentation part   352.0000000 magnetization 

 Free energy of the ion-electron system (eV)
  ---------------------------------------------------
  alpha Z        PSCENC =      2619.00254165
  Ewald energy   TEWEN  =    -28361.60401793
  -1/2 Hartree   DENC   =     -5241.16052202
  -V(xc)+E(xc)   XCENC  =       463.77583196
  PAW double counting   =     23920.39735419   -23172.13309131
  entropy T*S    EENTRO =        -0.00075140
  eigenvalues    EBANDS =       305.95536601
  atomic energy  EATOM  =     29633.78979189
  ---------------------------------------------------
  free energy    TOTEN  =       168.02250304 eV

  energy without entropy =      168.02325444  energy(sigma->0) =      168.02287874


--------------------------------------------------------------------------------------------------------




----------------------------------------- Iteration    1(   3)  ---------------------------------------


    EDDAV :  VPU time 1927.99: CPU time 1927.42
    DOS   :  VPU time    0.00: CPU time   -0.00
    ------------------------------------------
      LOOP:  VPU time 1928.11: CPU time 1927.54

 eigenvalue-minimisations  : 95168
 total energy-change (2. order) :-0.2591469E+03  (-0.2335457E+03)
 number of electron  352.0000000 magnetization 
 augmentation part   352.0000000 magnetization 

 Free energy of the ion-electron system (eV)
  ---------------------------------------------------
  alpha Z        PSCENC =      2619.00254165
  Ewald energy   TEWEN  =    -28361.60401793
  -1/2 Hartree   DENC   =     -5241.16052202
  -V(xc)+E(xc)   XCENC  =       463.77583196
  PAW double counting   =     23920.39735419   -23172.13309131
  entropy T*S    EENTRO =        -0.00053005
  eigenvalues    EBANDS =        46.80822623
  atomic energy  EATOM  =     29633.78979189
  ---------------------------------------------------
  free energy    TOTEN  =       -91.12441539 eV

  energy without entropy =      -91.12388534  energy(sigma->0) =      -91.12415037


--------------------------------------------------------------------------------------------------------




----------------------------------------- Iteration    1(   4)  ---------------------------------------


    EDDAV :  VPU time 1857.22: CPU time 1856.67
    DOS   :  VPU time    0.00: CPU time   -0.00
    ------------------------------------------
      LOOP:  VPU time 1857.34: CPU time 1856.79

 eigenvalue-minimisations  : 90304
 total energy-change (2. order) :-0.1000535E+02  (-0.9834691E+01)
 number of electron  352.0000000 magnetization 
 augmentation part   352.0000000 magnetization 

 Free energy of the ion-electron system (eV)
  ---------------------------------------------------
  alpha Z        PSCENC =      2619.00254165
  Ewald energy   TEWEN  =    -28361.60401793
  -1/2 Hartree   DENC   =     -5241.16052202
  -V(xc)+E(xc)   XCENC  =       463.77583196
  PAW double counting   =     23920.39735419   -23172.13309131
  entropy T*S    EENTRO =        -0.00060432
  eigenvalues    EBANDS =        36.80294734
  atomic energy  EATOM  =     29633.78979189
  ---------------------------------------------------
  free energy    TOTEN  =      -101.12976855 eV

  energy without entropy =     -101.12916423  energy(sigma->0) =     -101.12946639


--------------------------------------------------------------------------------------------------------




----------------------------------------- Iteration    1(   5)  ---------------------------------------


    EDDAV :  VPU time 2153.53: CPU time 2195.08
    DOS   :  VPU time    0.00: CPU time   -0.00
    CHARGE:  VPU time   88.05: CPU time   88.09
    MIXING:  VPU time    0.11: CPU time    0.11
    ------------------------------------------
      LOOP:  VPU time 2241.86: CPU time 2283.44

 eigenvalue-minimisations  : 91216
 total energy-change (2. order) :-0.1875484E+00  (-0.1870494E+00)
 number of electron  352.0000007 magnetization 
 augmentation part   125.7116517 magnetization 

 Broyden mixing:
  rms(total) = 0.13813E+01    rms(broyden)= 0.13813E+01
  rms(prec ) = 0.21044E+01
  weight for this iteration     100.00

 Free energy of the ion-electron system (eV)
  ---------------------------------------------------
  alpha Z        PSCENC =      2619.00254165
  Ewald energy   TEWEN  =    -28361.60401793
  -1/2 Hartree   DENC   =     -5241.16052202
  -V(xc)+E(xc)   XCENC  =       463.77583196
  PAW double counting   =     23920.39735419   -23172.13309131
  entropy T*S    EENTRO =        -0.00060196
  eigenvalues    EBANDS =        36.61539662
  atomic energy  EATOM  =     29633.78979189
  ---------------------------------------------------
  free energy    TOTEN  =      -101.31731691 eV

  energy without entropy =     -101.31671495  energy(sigma->0) =     -101.31701593


--------------------------------------------------------------------------------------------------------




----------------------------------------- Iteration    1(   6)  ---------------------------------------


    POTLOK:  VPU time    0.72: CPU time    0.72
    SETDIJ:  VPU time    1.05: CPU time    1.06
    EDDAV :  VPU time 2770.36: CPU time 2769.72
    DOS   :  VPU time    0.00: CPU time   -0.00
    CHARGE:  VPU time   92.20: CPU time   92.18
    MIXING:  VPU time    0.06: CPU time    0.06
    ------------------------------------------
      LOOP:  VPU time 2864.56: CPU time 2863.90

 eigenvalue-minimisations  : 89024
 total energy-change (2. order) : 0.6118571E+01  (-0.2038360E+01)
 number of electron  352.0000007 magnetization 
 augmentation part   130.1594858 magnetization 

 Broyden mixing:
  rms(total) = 0.32569E+00    rms(broyden)= 0.32569E+00
  rms(prec ) = 0.44396E+00
  weight for this iteration     100.00

 eigenvalues of (default mixing * dielectric matrix)
  average eigenvalue GAMMA=   1.0900
  1.0900

 Free energy of the ion-electron system (eV)
  ---------------------------------------------------
  alpha Z        PSCENC =      2619.00254165
  Ewald energy   TEWEN  =    -28361.60401793
  -1/2 Hartree   DENC   =     -4995.42706703
  -V(xc)+E(xc)   XCENC  =       452.79724143
  PAW double counting   =     23420.04957188   -22694.99225891
  entropy T*S    EENTRO =        -0.00068456
  eigenvalues    EBANDS =      -168.81386478
  atomic energy  EATOM  =     29633.78979189
  ---------------------------------------------------
  free energy    TOTEN  =       -95.19874636 eV

  energy without entropy =      -95.19806181  energy(sigma->0) =      -95.19840409


--------------------------------------------------------------------------------------------------------




----------------------------------------- Iteration    1(   7)  ---------------------------------------


    POTLOK:  VPU time    0.96: CPU time    0.97
    SETDIJ:  VPU time    1.09: CPU time    1.09
    EDDAV :  VPU time 2737.31: CPU time 2753.43
    DOS   :  VPU time    0.00: CPU time   -0.00
    CHARGE:  VPU time   82.49: CPU time   86.87
    MIXING:  VPU time    0.02: CPU time    0.02
    ------------------------------------------
      LOOP:  VPU time 2821.99: CPU time 2842.50

 eigenvalue-minimisations  : 93432
 total energy-change (2. order) : 0.1266299E+00  (-0.7106001E-01)
 number of electron  352.0000007 magnetization 
 augmentation part   130.8090303 magnetization 

 Broyden mixing:
  rms(total) = 0.18086E+00    rms(broyden)= 0.18086E+00
  rms(prec ) = 0.21307E+00
  weight for this iteration     100.00

 eigenvalues of (default mixing * dielectric matrix)
  average eigenvalue GAMMA=   1.8103
  1.1247  2.4959

 Free energy of the ion-electron system (eV)
  ---------------------------------------------------
  alpha Z        PSCENC =      2619.00254165
  Ewald energy   TEWEN  =    -28361.60401793
  -1/2 Hartree   DENC   =     -4948.75039592
  -V(xc)+E(xc)   XCENC  =       450.51177617
  PAW double counting   =     23351.43881591   -22637.71444699
  entropy T*S    EENTRO =        -0.00063877
  eigenvalues    EBANDS =      -201.74554247
  atomic energy  EATOM  =     29633.78979189
[...]
     72      -0.7440      2.00000
     73      -0.7438      2.00000
     74      -0.7438      2.00000
     75      -0.7437      2.00000
     76      -0.7437      2.00000
     77      -0.7433      2.00000
     78      -0.7432      2.00000
     79      -0.7429      2.00000
     80      -0.7429      2.00000
     81      -0.6063      2.00000
     82      -0.6063      2.00000
     83      -0.6057      2.00000
     84      -0.6051      2.00000
     85      -0.6039      2.00000
     86      -0.6035      2.00000
     87      -0.6035      2.00000
     88      -0.6035      2.00000
     89      -0.6034      2.00000
     90      -0.6034      2.00000
     91      -0.6034      2.00000
     92      -0.6034      2.00000
     93      -0.6033      2.00000
     94      -0.6033      2.00000
     95      -0.6033      2.00000
     96      -0.6033      2.00000
     97      -0.6032      2.00000
     98      -0.6032      2.00000
     99      -0.6032      2.00000
    100      -0.6027      2.00000
    101      -0.6016      2.00000
    102      -0.6010      2.00000
    103      -0.6004      2.00000
    104      -0.6004      2.00000
    105      -0.1926      2.00000
    106      -0.1916      2.00000
    107      -0.1916      2.00000
    108      -0.1901      2.00000
    109      -0.1900      2.00000
    110      -0.1899      2.00000
    111      -0.1899      2.00000
    112      -0.1897      2.00000
    113      -0.1896      2.00000
    114      -0.1896      2.00000
    115      -0.1896      2.00000
    116      -0.1896      2.00000
    117      -0.1895      2.00000
    118      -0.1895      2.00000
    119      -0.1895      2.00000
    120      -0.1895      2.00000
    121      -0.1894      2.00000
    122      -0.1892      2.00000
    123      -0.1892      2.00000
    124      -0.1891      2.00000
    125      -0.1890      2.00000
    126      -0.1875      2.00000
    127      -0.1875      2.00000
    128      -0.1865      2.00000
    129       0.0874      2.00000
    130       0.0885      2.00000
    131       0.0885      2.00000
    132       0.0885      2.00000
    133       0.0893      2.00000
    134       0.0893      2.00000
    135       0.0894      2.00000
    136       0.0895      2.00000
    137       0.0896      2.00000
    138       0.0896      2.00000
    139       0.0898      2.00000
    140       0.0898      2.00000
    141       0.0905      2.00000
    142       0.0905      2.00000
    143       0.0906      2.00000
    144       0.0916      2.00000
    145       0.7330      2.00000
    146       0.7330      2.00000
    147       0.7332      2.00000
    148       0.7333      2.00000
    149       0.7334      2.00000
    150       0.7334      2.00000
    151       0.7334      2.00000
    152       0.7334      2.00000
    153       0.7335      2.00000
    154       0.7335      2.00000
    155       0.7335      2.00000
    156       0.7336      2.00000
    157       0.7337      2.00000
    158       0.7337      2.00000
    159       0.7337      2.00000
    160       0.7338      2.00000
    161       0.7338      2.00000
    162       0.7339      2.00000
    163       0.7339      2.00000
    164       0.7339      2.00000
    165       0.7339      2.00000
    166       0.7341      2.00000
    167       0.7342      2.00000
    168       0.7342      2.00000
    169       3.2205      0.00000
    170       3.2244      0.00000
    171       3.2244      0.00000
    172       3.2257      0.00000
    173       3.2261      0.00000
    174       3.2263      0.00000
    175       3.2263      0.00000
    176       3.2263      0.00000
    177       3.2263      0.00000
    178       3.2263      0.00000
    179       3.2264      0.00000
    180       3.2264      0.00000
    181       3.2265      0.00000
    182       3.2266      0.00000
    183       3.2266      0.00000
    184       3.2266      0.00000
    185       3.2266      0.00000
    186       3.2266      0.00000
    187       3.2266      0.00000
    188       3.2268      0.00000
    189       3.2272      0.00000
    190       3.2285      0.00000
    191       3.2285      0.00000
    192       3.2324      0.00000
    193       7.0921      0.00000
    194       7.0921      0.00000
    195       7.0932      0.00000
    196       7.0949      0.00000
    197       7.0953      0.00000
    198       7.0956      0.00000
    199       7.0956      0.00000
    200       7.0959      0.00000
    201       7.0960      0.00000
    202       7.0960      0.00000
    203       7.0961      0.00000
    204       7.0961      0.00000
    205       7.0961      0.00000
    206       7.0961      0.00000
    207       7.0962      0.00000
    208       7.0962      0.00000
    209       7.0963      0.00000
    210       7.0966      0.00000
    211       7.0966      0.00000
    212       7.0969      0.00000
    213       7.0973      0.00000
    214       7.0990      0.00000
    215       7.1001      0.00000
    216       7.1001      0.00000


--------------------------------------------------------------------------------------------------------


 soft charge-density along one line, spin component           1
         0         1         2         3         4         5         6         7         8         9
 total charge-density along one line
 
 pseudopotential strength for first ion, spin component:           1
-10.823  -0.000   0.000  -0.000  -0.000   0.043   0.000  -0.000
 -0.000 -10.823   0.000  -0.000   0.000   0.000   0.043  -0.000
  0.000   0.000 -10.813   0.000  -0.000  -0.000  -0.000   0.041
 -0.000  -0.000   0.000 -10.823  -0.000   0.000   0.000  -0.000
 -0.000   0.000  -0.000  -0.000 -10.813   0.000  -0.000   0.000
  0.043   0.000  -0.000   0.000   0.000   0.264  -0.000   0.000
  0.000   0.043  -0.000   0.000  -0.000  -0.000   0.264   0.000
 -0.000  -0.000   0.041  -0.000   0.000   0.000   0.000   0.265
  0.000   0.000  -0.000   0.043   0.000  -0.000  -0.000   0.000
  0.000  -0.000   0.000   0.000   0.041  -0.000   0.000  -0.000
  0.000   0.000   0.000   0.000  -0.000   0.000   0.000  -0.000
 -0.000  -0.000  -0.000  -0.000   0.000   0.000   0.000   0.000
 -0.000  -0.000   0.000  -0.000  -0.000   0.000   0.000  -0.000
 -0.000  -0.000   0.000  -0.000  -0.000   0.000   0.000   0.000
 -0.000  -0.000   0.000  -0.000  -0.000   0.000   0.000  -0.000
  0.000   0.000  -0.000   0.000   0.000  -0.000  -0.000   0.000
  0.000   0.000  -0.000   0.000   0.000  -0.000  -0.000   0.000
  0.000   0.000  -0.000   0.000   0.000  -0.000  -0.000   0.000
 total augmentation occupancy for first ion, spin component:           1
  1.915   0.000  -0.001  -0.000  -0.001  -0.078   0.000  -0.000   0.000   0.000   0.003  -0.000   0.000   0.000  -0.000  -0.000
  0.000   1.920  -0.001  -0.001  -0.002   0.000  -0.083   0.001   0.001   0.000   0.003  -0.001   0.000   0.000  -0.000  -0.000
 -0.001  -0.001   1.963  -0.000  -0.003  -0.000   0.001  -0.111   0.001   0.002   0.012   0.002   0.000  -0.000   0.000  -0.000
 -0.000  -0.001  -0.000   1.926   0.001   0.000   0.001   0.001  -0.087   0.000   0.002  -0.001   0.000   0.000  -0.000  -0.000
 -0.001  -0.002  -0.003   0.001   1.953   0.000   0.000   0.002   0.000  -0.104   0.007   0.001   0.000   0.000  -0.000   0.000
 -0.078   0.000  -0.000   0.000   0.000   0.085  -0.000   0.001  -0.000  -0.000  -0.000   0.001   0.001  -0.000   0.000  -0.000
  0.000  -0.083   0.001   0.001   0.000  -0.000   0.088  -0.002  -0.000   0.001   0.000   0.001  -0.000  -0.000   0.000   0.000
 -0.000   0.001  -0.111   0.001   0.002   0.001  -0.002   0.070  -0.001  -0.001  -0.007  -0.001   0.000   0.000  -0.000   0.000
  0.000   0.001   0.001  -0.087   0.000  -0.000  -0.000  -0.001   0.090  -0.001   0.001   0.001  -0.000   0.001   0.000   0.000
  0.000   0.000   0.002   0.000  -0.104  -0.000   0.001  -0.001  -0.001   0.067  -0.004  -0.000  -0.000  -0.000   0.000   0.000
  0.003   0.003   0.012   0.002   0.007  -0.000   0.000  -0.007   0.001  -0.004   0.963  -0.230   0.000  -0.000   0.002  -0.000
 -0.000  -0.001   0.002  -0.001   0.001   0.001   0.001  -0.001   0.001  -0.000  -0.230   0.116   0.000   0.000  -0.001  -0.000
  0.000   0.000   0.000   0.000   0.000   0.001  -0.000   0.000  -0.000  -0.000   0.000   0.000   0.081   0.001   0.002  -0.006
  0.000   0.000  -0.000   0.000   0.000  -0.000  -0.000   0.000   0.001  -0.000  -0.000   0.000   0.001   0.082  -0.000  -0.000
 -0.000  -0.000   0.000  -0.000  -0.000   0.000   0.000  -0.000   0.000   0.000   0.002  -0.001   0.002  -0.000   0.081  -0.000
 -0.000  -0.000  -0.000  -0.000   0.000  -0.000   0.000   0.000   0.000   0.000  -0.000  -0.000  -0.006  -0.000  -0.000   0.000
 -0.000  -0.000   0.000  -0.000   0.000   0.000   0.000  -0.000  -0.000   0.000   0.000   0.000  -0.000  -0.006  -0.000   0.000
  0.000   0.000   0.000   0.000  -0.000  -0.000  -0.000   0.000  -0.000  -0.000  -0.000   0.000  -0.000  -0.000  -0.006   0.000


------------------------ aborting loop because EDIFF is reached ----------------------------------------




--------------------------------------------------------------------------------------------------------


    CHARGE:  VPU time  204.49: CPU time  204.46
    FORLOC:  VPU time    0.08: CPU time    0.08
    FORNL :  VPU time  637.70: CPU time  637.43
    STRESS:  VPU time 2786.56: CPU time 2785.94
    FORCOR:  VPU time    0.72: CPU time    0.72
    FORHAR:  VPU time    0.28: CPU time    0.28
    MIXING:  VPU time    0.02: CPU time    0.02


--------------------------------------------------------------------------------------------------------



  FREE ENERGIE OF THE ION-ELECTRON SYSTEM (eV)
  ---------------------------------------------------
  free  energy   TOTEN  =       -95.048691 eV

  energy  without entropy=      -95.048077  energy(sigma->0) =      -95.048384
 

  FORCE on cell =-STRESS in cart. coord.  units (eV/reduce length):
  Direction    X        Y        Z        XY       YZ       ZX
  --------------------------------------------------------------------------------------
  Alpha Z   2619.00   2619.00   2619.00
  Ewald    -9453.93  -9453.90  -9453.90      0.00     -0.00     -0.00
  Hartree   1641.37   1641.39   1641.39     -0.00     -0.00     -0.00
  E(xc)    -1569.60  -1569.60  -1569.60      0.00     -0.00      0.00
  Local     2162.47   2162.42   2162.42      0.00      0.00      0.00
  n-local  -1727.21  -1733.19  -1721.24      2.65      1.94      1.23
  augment   1377.10   1377.10   1377.10     -0.00     -0.00     -0.00
  Kinetic   4879.78   4874.18   4885.38      0.38     -0.33     -1.03
  -------------------------------------------------------------------------------------
  Total      -71.02    -71.02    -71.02     -0.00      0.00      0.00
  in kB     -155.39   -155.39   -155.39     -0.00      0.00      0.00
  external pressure =     -155.39 kB  Pullay stress =        0.00 kB


 VOLUME and BASIS-vectors are now :
 -----------------------------------------------------------------------------
  energy-cutoff  :      750.00
  volume of cell :      732.25
      direct lattice vectors                 reciprocal lattice vectors
     9.013360109  0.000000000  0.000000000     0.110946416  0.000000000  0.000000000
     0.000000000  9.013360109  0.000000000     0.000000000  0.110946416  0.000000000
     0.000000000  0.000000000  9.013360109     0.000000000  0.000000000  0.110946416

  length of vectors
     9.013360109  9.013360109  9.013360109     0.110946416  0.110946416  0.110946416


 FORCES acting on ions
    electron-ion (+dipol)            ewald-force                    non-local-force                 convergence-correction
 -----------------------------------------------------------------------------------------------
   0.313E+01 -.374E-13 0.155E-07   -.309E+01 -.249E-13 -.782E-13   -.356E-01 -.541E-19 -.338E-20   -.464E-04 -.213E-12 -.330E-12
   -.807E+00 -.339E-13 -.153E-07   0.815E+00 0.142E-13 0.426E-13   -.511E-02 0.303E-21 -.963E-21   -.163E-04 -.240E-12 -.507E-12
   0.257E+00 0.390E-12 -.334E-12   -.258E+00 0.284E-13 0.604E-13   0.341E-03 0.541E-21 0.384E-20   0.428E-06 0.204E-12 -.227E-12
   -.207E+00 -.839E-12 0.115E-11   0.203E+00 0.426E-13 0.142E-13   0.293E-02 -.542E-21 0.248E-20   0.139E-05 0.236E-12 -.332E-12
   0.257E+00 -.433E-13 -.355E-11   -.258E+00 0.142E-13 0.462E-13   0.341E-03 -.886E-20 -.204E-20   0.758E-06 -.241E-12 0.403E-12
   -.207E+00 -.660E-13 -.684E-11   0.203E+00 0.142E-13 0.000E+00   0.293E-02 -.578E-21 0.159E-20   0.131E-05 -.291E-12 0.576E-12
   0.108E+00 0.394E-12 -.554E-11   -.107E+00 0.249E-13 -.355E-14   -.930E-03 -.750E-20 0.304E-20   -.401E-05 0.233E-12 0.308E-12
   -.991E-01 -.127E-11 0.419E-11   0.997E-01 0.284E-13 0.568E-13   -.486E-03 0.229E-20 0.261E-20   0.656E-06 0.289E-12 0.403E-12
   -.395E+00 -.755E+00 -.445E-11   0.392E+00 0.753E+00 0.107E-13   0.357E-02 0.242E-02 -.111E-20   0.111E-04 0.325E-05 -.390E-12
   -.397E+00 0.749E+00 -.318E-11   0.394E+00 -.747E+00 0.249E-13   0.346E-02 -.235E-02 0.337E-21   0.716E-05 -.510E-05 -.283E-12
   -.395E+00 0.755E+00 -.975E-12   0.392E+00 -.753E+00 0.711E-13   0.357E-02 -.242E-02 -.841E-21   0.111E-04 -.325E-05 -.397E-12
   -.397E+00 -.749E+00 -.378E-11   0.394E+00 0.747E+00 0.995E-13   0.346E-02 0.235E-02 -.110E-19   0.716E-05 0.510E-05 -.328E-12
   -.117E-01 -.621E-01 -.583E-11   0.120E-01 0.619E-01 -.355E-14   -.126E-03 0.191E-03 0.424E-21   0.261E-06 -.416E-05 0.461E-12
   -.127E-01 0.620E-01 -.128E-11   0.131E-01 -.618E-01 0.391E-13   -.128E-03 -.198E-03 0.119E-21   -.370E-07 -.184E-05 0.362E-12
   -.117E-01 0.621E-01 -.599E-11   0.120E-01 -.619E-01 0.142E-13   -.126E-03 -.191E-03 0.952E-22   0.261E-06 0.416E-05 0.458E-12
   -.127E-01 -.620E-01 -.110E-11   0.131E-01 0.618E-01 -.142E-13   -.128E-03 0.198E-03 0.336E-20   -.370E-07 0.184E-05 0.398E-12
   -.395E+00 -.664E-13 -.755E+00   0.392E+00 -.355E-13 0.753E+00   0.357E-02 0.496E-20 0.242E-02   0.110E-04 -.213E-12 0.331E-05
   -.397E+00 0.509E-14 0.749E+00   0.394E+00 -.355E-13 -.747E+00   0.346E-02 -.157E-19 -.235E-02   0.709E-05 -.255E-12 -.516E-05
   -.117E-01 0.613E-12 -.621E-01   0.120E-01 -.497E-13 0.619E-01   -.126E-03 -.185E-21 0.191E-03   0.279E-06 0.205E-12 -.410E-05
   -.127E-01 -.131E-11 0.620E-01   0.131E-01 -.497E-13 -.618E-01   -.128E-03 0.409E-21 -.198E-03   -.183E-07 0.261E-12 -.190E-05
   -.395E+00 -.638E-13 0.755E+00   0.392E+00 -.426E-13 -.753E+00   0.357E-02 0.854E-20 -.242E-02   0.110E-04 -.215E-12 -.331E-05
   -.397E+00 -.394E-13 -.749E+00   0.394E+00 -.426E-13 0.747E+00   0.346E-02 0.286E-20 0.235E-02   0.709E-05 -.295E-12 0.516E-05
   -.117E-01 0.349E-12 0.621E-01   0.120E-01 -.284E-13 -.619E-01   -.126E-03 0.298E-21 -.191E-03   0.279E-06 0.208E-12 0.410E-05
   -.127E-01 -.131E-11 -.620E-01   0.131E-01 -.284E-13 0.618E-01   -.128E-03 0.234E-20 0.198E-03   -.183E-07 0.302E-12 0.190E-05
   0.484E+00 0.171E-02 0.171E-02   -.487E+00 -.170E-02 -.170E-02   0.198E-02 -.412E-05 -.412E-05   0.695E-06 -.124E-05 -.124E-05
   -.274E+00 -.493E-03 -.493E-03   0.274E+00 0.509E-03 0.509E-03   0.153E-03 -.853E-05 -.853E-05   -.292E-05 -.259E-05 -.259E-05
   0.484E+00 -.171E-02 0.171E-02   -.487E+00 0.170E-02 -.170E-02   0.198E-02 0.412E-05 -.412E-05   0.695E-06 0.124E-05 -.124E-05
   -.274E+00 0.493E-03 -.493E-03   0.274E+00 -.509E-03 0.509E-03   0.153E-03 0.853E-05 -.853E-05   -.292E-05 0.259E-05 -.259E-05
   0.484E+00 0.171E-02 -.171E-02   -.487E+00 -.170E-02 0.170E-02   0.198E-02 -.412E-05 0.412E-05   0.695E-06 -.124E-05 0.124E-05
   -.274E+00 -.493E-03 0.493E-03   0.274E+00 0.509E-03 -.509E-03   0.153E-03 -.853E-05 0.853E-05   -.292E-05 -.259E-05 0.259E-05
   0.484E+00 -.171E-02 -.171E-02   -.487E+00 0.170E-02 0.170E-02   0.198E-02 0.412E-05 0.412E-05   0.695E-06 0.124E-05 0.124E-05
   -.274E+00 0.493E-03 0.493E-03   0.274E+00 -.509E-03 -.509E-03   0.153E-03 0.853E-05 0.853E-05   -.292E-05 0.259E-05 0.259E-05
 -----------------------------------------------------------------------------------------------
   -.212E-05 -.227E-10 0.481E-10   -.794E-14 -.235E-13 -.228E-13   0.272E-06 -.105E-18 0.144E-18   0.275E-05 -.228E-12 0.649E-12
 
 
 POSITION                                       TOTAL-FORCE (eV/Angst)
 -----------------------------------------------------------------------------------
      0.01000      0.00000      0.00000         0.000124      0.000000     -0.000000
      4.50668      0.00000      0.00000         0.002976      0.000000      0.000000
      0.00000      4.50668      0.00000        -0.000512      0.000000     -0.000000
      4.50668      4.50668      0.00000        -0.001615      0.000000     -0.000000
      0.00000      0.00000      4.50668        -0.000512      0.000000     -0.000000
      4.50668      0.00000      4.50668        -0.001615      0.000000      0.000000
      0.00000      4.50668      4.50668         0.000280     -0.000000     -0.000000
      4.50668      4.50668      4.50668         0.000082      0.000000     -0.000000
      2.25334      2.25334      0.00000         0.000270      0.000693      0.000000
      6.76002      2.25334      0.00000         0.000190     -0.000585      0.000000
      2.25334      6.76002      0.00000         0.000270     -0.000693      0.000000
      6.76002      6.76002      0.00000         0.000190      0.000585      0.000000
      2.25334      2.25334      4.50668         0.000208     -0.000031      0.000000
      6.76002      2.25334      4.50668         0.000209      0.000035     -0.000000
      2.25334      6.76002      4.50668         0.000208      0.000031     -0.000000
      6.76002      6.76002      4.50668         0.000209     -0.000035      0.000000
      2.25334      0.00000      2.25334         0.000270      0.000000      0.000693
      6.76002      0.00000      2.25334         0.000190      0.000000     -0.000585
      2.25334      4.50668      2.25334         0.000208      0.000000     -0.000031
      6.76002      4.50668      2.25334         0.000209     -0.000000      0.000035
      2.25334      0.00000      6.76002         0.000270     -0.000000     -0.000693
      6.76002      0.00000      6.76002         0.000190      0.000000      0.000585
      2.25334      4.50668      6.76002         0.000208     -0.000000      0.000031
      6.76002      4.50668      6.76002         0.000209     -0.000000     -0.000035
      0.00000      2.25334      2.25334        -0.001197      0.000007      0.000007
      4.50668      2.25334      2.25334         0.000518      0.000005      0.000005
      0.00000      6.76002      2.25334        -0.001197     -0.000007      0.000007
      4.50668      6.76002      2.25334         0.000518     -0.000005      0.000005
      0.00000      2.25334      6.76002        -0.001197      0.000007     -0.000007
      4.50668      2.25334      6.76002         0.000518      0.000005     -0.000005
      0.00000      6.76002      6.76002        -0.001197     -0.000007     -0.000007
      4.50668      6.76002      6.76002         0.000518     -0.000005     -0.000005
 -----------------------------------------------------------------------------------
    total drift:                                0.000001     -0.000000      0.000000


--------------------------------------------------------------------------------------------------------



 mean value of Nose-termostat <S>:     1.000 mean value of <T> :     0.000
 mean temperature <T/S>/<1/S>  :     0.000

     LOOP+:  VPU time42193.86: CPU time42382.02
  
  
 General timing and accounting informations for this job:
 ========================================================
  
                  Total CPU time used (sec):    42535.461
                            User time (sec):    38485.783
                          System time (sec):     4049.677
                         Elapsed time (sec):    42723.799
  
                   Maximum memory used (kb):     9637264.
                   Average memory used (kb):           0.
  
                          Minor page faults:      2966841
                          Major page faults:            0
                 Voluntary context switches:         1134
