    4    4    1    1
  0.1695037E+02  0.4077679E-09  0.4077679E-09  0.4077679E-09  0.5000000E-15
  1.000000000000000E-004
  CAR 
 unknown system                          
   12   84   16
 
  0.0000000E+00  0.0000000E+00  0.0000000E+00  0.5787037E-03
   1       -3.2279
   2        4.8628
   3        4.8628
   4        4.8628
   5        6.1243
   6        6.1243
   7        6.1243
   8       12.9725
   9       12.9725
  10       12.9725
  11       13.1918
  12       13.1918
  13       13.1918
  14       13.1918
  15       13.1918
  16       13.1918
 
  0.8333333E-01  0.0000000E+00  0.0000000E+00  0.3472222E-02
   1       -3.1661
   2        3.9968
   3        4.9196
   4        4.9196
   5        6.1845
   6        6.1845
   7        7.0979
   8       11.7614
   9       11.7614
  10       12.7545
  11       12.7545
  12       13.0335
  13       13.2446
  14       13.2446
  15       14.5171
  16       14.5171
 
  0.1666667E+00  0.0000000E+00  0.0000000E+00  0.3472222E-02
   1       -2.9808
   2        2.8085
   3        5.0899
   4        5.0899
   5        6.3644
   6        6.3644
   7        8.6086
   8       10.5622
   9       10.5622
  10       11.8603
  11       11.8603
  12       13.2163
  13       13.4028
  14       13.4028
  15       16.0587
  16       16.0587
 
  0.2500000E+00  0.0000000E+00  0.0000000E+00  0.3472222E-02
   1       -2.6725
   2        1.6903
   3        5.3738
   4        5.3738
   5        6.6615
   6        6.6615
   7        9.4767
   8        9.4767
   9       10.2636
  10       10.8918
  11       10.8918
  12       13.5205
  13       13.6667
  14       13.6667
  15       17.0435
  16       17.4582
 
  0.3333333E+00  0.0000000E+00  0.0000000E+00  0.3472222E-02
   1       -2.2419
   2        0.6747
   3        5.7716
   4        5.7716
   5        7.0696
   6        7.0696
   7        8.5061
   8        8.5061
   9        9.9716
  10        9.9716
  11       12.0289
  12       13.9455
  13       14.0364
  14       14.0364
  15       16.5682
  16       16.5682
 
  0.4166667E+00  0.0000000E+00  0.0000000E+00  0.3472222E-02
   1       -1.6902
   2       -0.2297
   3        6.2835
   4        6.2835
   5        7.5660
   6        7.5660
   7        7.6504
   8        7.6504
   9        9.1594
  10        9.1594
  11       13.8935
  12       14.4899
  13       14.5117
  14       14.5117
  15       15.7786
  16       15.7786
 
  0.5000000E+00  0.0000000E+00  0.0000000E+00  0.1736111E-02
   1       -1.0188
   2       -1.0188
   3        6.9096
   4        6.9096
   5        6.9096
   6        6.9096
   7        7.9387
   8        7.9387
   9        8.6801
  10        8.6801
  11       15.0926
  12       15.0926
  13       15.0926
  14       15.0926
  15       15.1516
  16       15.1516
 
  0.8333333E-01  0.8333333E-01  0.0000000E+00  0.6944444E-02
   1       -3.1043
   2        4.0551
   3        4.0551
   4        4.9763
   5        6.2444
   6        7.1563
   7        7.1563
   8       10.9069
   9       11.8187
  10       11.8187
  11       12.8086
  12       12.8086
  13       13.2980
  14       14.4382
  15       14.5735
  16       14.5735
 
  0.1666667E+00  0.8333333E-01  0.0000000E+00  0.1388889E-01
   1       -2.9191
   2        2.8677
   3        4.2299
   4        5.1467
   5        6.4233
   6        7.3309
   7        8.6655
   8        9.7656
   9       10.6193
  10       11.9165
  11       11.9904
  12       12.7065
  13       12.9707
  14       14.7427
  15       15.5523
  16       16.1150
 
  0.2500000E+00  0.8333333E-01  0.0000000E+00  0.1388889E-01
   1       -2.6109
   2        1.7500
   3        4.5209
   4        5.4306
   5        6.7169
   6        7.6190
   7        8.6995
   8        9.5338
   9       10.3182
  10       10.9510
  11       11.7628
  12       12.2762
  13       13.2410
  14       15.0246
  15       16.3325
  16       17.0364
 
  0.3333333E+00  0.8333333E-01  0.0000000E+00  0.1388889E-01
   1       -2.1805
   2        0.7349
   3        4.9275
   4        5.8285
   5        7.0959
   6        7.7642
   7        8.0114
   8        8.5631
   9       10.0384
  10       10.8465
  11       12.0782
  12       12.6757
  13       13.6211
  14       15.3878
  15       15.4190
  16       16.1552
 
  0.4166667E+00  0.8333333E-01  0.0000000E+00  0.1388889E-01
   1       -1.6290
   2       -0.1691
   3        5.4484
   4        6.3403
   5        6.8092
   6        7.7074
   7        7.7101
   8        8.4435
   9        9.2815
  10       10.0193
  11       13.1881
  12       13.8832
  13       14.1609
  14       14.5462
  15       15.3646
  16       15.9253
 
  0.5000000E+00  0.8333333E-01  0.0000000E+00  0.6944444E-02
   1       -0.9579
   2       -0.9579
   3        6.0808
   4        6.0808
   5        6.9666
   6        6.9666
   7        8.2764
   8        8.2764
   9        9.3355
  10        9.3355
  11       13.8121
  12       13.8121
  13       14.6690
  14       14.6690
  15       15.9137
  16       15.9137
 
  0.1666667E+00  0.1666667E+00  0.0000000E+00  0.6944444E-02
   1       -2.7341
   2        3.0451
   3        3.0451
   4        5.3170
   5        6.5975
   6        8.6395
   7        8.8348
   8        8.8348
   9       10.7907
  10       10.7907
  11       12.0855
  12       12.0855
  13       13.6168
  14       15.1030
  15       16.2191
  16       16.2839
 
  0.2500000E+00  0.1666667E+00  0.0000000E+00  0.1388889E-01
   1       -2.4263
   2        1.9291
   3        3.3402
   4        5.6011
   5        6.8580
   6        7.6052
   7        9.1096
   8        9.7050
   9       10.4776
  10       11.0762
  11       11.1320
  12       12.3703
  13       13.1242
  14       15.1584
  15       16.1813
  16       16.2027
 
  0.3333333E+00  0.1666667E+00  0.0000000E+00  0.1388889E-01
   1       -1.9965
   2        0.9153
   3        3.7525
   4        5.9990
   5        6.5135
   6        7.3900
   7        8.7342
   8        9.4391
   9       10.2781
  10       11.4756
  11       12.1861
  12       12.2717
  13       12.8078
  14       14.2014
  15       15.3050
  16       16.9570
 
  0.4166667E+00  0.1666667E+00  0.0000000E+00  0.1388889E-01
   1       -1.4457
   2        0.0124
   3        4.2806
   4        5.6747
   5        6.5110
   6        7.8784
   7        7.8888
   8        9.2081
   9       10.1773
  10       11.4600
  11       11.9886
  12       13.1817
  13       13.3526
  14       14.1624
  15       14.5092
  16       17.4588
 
  0.5000000E+00  0.1666667E+00  0.0000000E+00  0.6944444E-02
   1       -0.7754
   2       -0.7754
   3        4.9228
   4        4.9228
   5        7.1374
   6        7.1374
   7        8.5157
   8        8.5157
   9       10.7449
  10       10.7449
  11       12.6146
  12       12.6146
  13       13.8043
  14       13.8043
  15       16.0797
  16       16.0797
 
  0.2500000E+00  0.2500000E+00  0.0000000E+00  0.6944444E-02
   1       -2.1192
   2        2.2270
   3        2.2270
   4        5.8853
   5        6.4072
   6        7.2764
   7        9.9904
   8        9.9904
   9       10.6959
  10       10.6959
  11       11.4746
  12       11.4746
  13       14.0864
  14       14.1486
  15       15.2594
  16       15.7850
 
  0.3333333E+00  0.2500000E+00  0.0000000E+00  0.1388889E-01
   1       -1.6902
   2        1.2155
   3        2.6432
   4        5.4563
   5        6.2834
   6        7.6612
   7        9.0194
   8       10.3551
   9       10.3898
  10       11.2890
  11       11.6965
  12       12.6219
  13       13.1228
  14       13.7794
  15       14.3787
  16       16.9522
 
  0.4166667E+00  0.2500000E+00  0.0000000E+00  0.1388889E-01
   1       -1.1406
   2        0.3145
   3        3.1764
   4        4.5870
   5        6.7956
   6        8.1634
   7        8.1855
   8        9.5600
   9       10.9031
  10       11.7460
  11       12.2435
  12       12.2703
  13       13.0423
  14       13.5747
  15       14.4253
  16       18.3045
 
  0.5000000E+00  0.2500000E+00  0.0000000E+00  0.6944444E-02
   1       -0.4717
   2       -0.4717
   3        3.8252
   4        3.8252
   5        7.4222
   6        7.4222
   7        8.8229
   8        8.8229
   9       11.5301
  10       11.5301
  11       12.3456
  12       12.3456
  13       12.8617
  14       12.8617
  15       16.3403
  16       16.3403
 
  0.3333333E+00  0.3333333E+00  0.0000000E+00  0.6944444E-02
   1       -1.2626
   2        1.6347
   3        1.6347
   4        4.4734
   5        6.6817
   6        8.0710
   7        9.4188
   8        9.4188
   9       10.8115
  10       10.8115
  11       12.1555
  12       12.9778
  13       12.9778
  14       13.4901
  15       14.8937
  16       16.6464
 
  0.4166667E+00  0.3333333E+00  0.0000000E+00  0.1388889E-01
   1       -0.7145
   2        0.7364
   3        2.1720
   4        3.5941
   5        7.1942
   6        8.5625
   7        8.5985
   8        9.9322
   9        9.9788
  10       11.3008
  11       11.3345
  12       12.6774
  13       13.4625
  14       14.6555
  15       14.7973
  16       17.8881
 
  0.5000000E+00  0.3333333E+00  0.0000000E+00  0.6944444E-02
   1       -0.0476
   2       -0.0476
   3        2.8259
   4        2.8259
   5        7.8211
   6        7.8211
   7        9.2369
   8        9.2369
   9       10.5596
  10       10.5596
  11       11.9564
  12       11.9564
  13       14.0413
  14       14.0413
  15       16.6834
  16       16.6834
 
  0.4166667E+00  0.4166667E+00  0.0000000E+00  0.6944444E-02
   1       -0.1685
   2        1.2771
   3        1.2771
   4        2.7084
   5        7.7070
   6        9.0758
   7        9.0758
   8        9.1249
   9       10.4451
  10       10.5007
  11       10.5007
  12       11.8561
  13       15.2579
  14       15.2579
  15       15.8518
  16       17.7089
 
  0.5000000E+00  0.4166667E+00  0.0000000E+00  0.6944444E-02
   1        0.4960
   2        0.4960
   3        1.9351
   4        1.9351
   5        8.3342
   6        8.3342
   7        9.7034
   8        9.7034
   9        9.7610
  10        9.7610
  11       11.1278
  12       11.1278
  13       15.7467
  14       15.7467
  15       17.0469
  16       17.0469
 
  0.5000000E+00  0.5000000E+00  0.0000000E+00  0.1736111E-02
   1        1.1575
   2        1.1575
   3        1.1575
   4        1.1575
   5        8.9616
   6        8.9616
   7        8.9616
   8        8.9616
   9       10.3930
  10       10.3930
  11       10.3930
  12       10.3930
  13       17.0210
  14       17.0210
  15       17.0210
  16       17.0210
 
  0.8333333E-01  0.8333333E-01  0.8333333E-01  0.4629630E-02
   1       -3.0426
   2        4.1134
   3        4.1134
   4        4.1134
   5        7.2144
   6        7.2144
   7        7.2144
   8       10.9643
   9       10.9643
  10       10.9643
  11       13.3508
  12       13.3508
  13       13.3508
  14       14.4967
  15       14.4967
  16       14.4967
 
  0.1666667E+00  0.8333333E-01  0.8333333E-01  0.1388889E-01
   1       -2.8574
   2        2.9268
   3        4.2882
   4        4.2882
   5        7.3875
   6        7.3875
   7        8.7214
   8        9.8243
   9        9.8243
  10       11.1369
  11       12.7615
  12       12.7615
  13       13.5092
  14       14.6719
  15       15.6093
  16       15.6093
 
  0.2500000E+00  0.8333333E-01  0.8333333E-01  0.1388889E-01
   1       -2.5493
   2        1.8097
   3        4.5790
   4        4.5790
   5        7.6669
   6        7.6669
   7        8.7648
   8        8.7648
   9       10.3678
  10       11.4280
  11       11.8197
  12       11.8197
  13       13.7732
  14       14.9630
  15       15.4494
  16       17.1806
 
  0.3333333E+00  0.8333333E-01  0.8333333E-01  0.1388889E-01
   1       -2.1191
   2        0.7951
   3        4.9851
   4        4.9851
   5        7.7072
   6        7.7072
   7        8.1576
   8        8.1576
   9       10.9064
  10       10.9064
  11       11.7793
  12       12.1767
  13       14.1430
  14       14.5105
  15       15.3686
  16       16.6764
 
  0.4166667E+00  0.8333333E-01  0.8333333E-01  0.1388889E-01
   1       -1.5679
   2       -0.1086
   3        5.5044
   4        5.5044
   5        6.8960
   6        6.8960
   7        8.6102
   8        8.6102
   9       10.0898
  10       10.0898
  11       12.3163
  12       13.6727
  13       14.0094
  14       14.6186
  15       15.8863
  16       15.8864
 
  0.5000000E+00  0.8333333E-01  0.8333333E-01  0.6944444E-02
   1       -0.8971
   2       -0.8971
   3        6.0579
   4        6.0579
   5        6.2329
   6        6.2329
   7        9.0212
   8        9.0212
   9        9.5683
  10        9.5683
  11       12.9408
  12       12.9408
  13       15.1999
  14       15.1999
  15       15.9469
  16       15.9469
 
  0.1666667E+00  0.1666667E+00  0.8333333E-01  0.1388889E-01
   1       -2.6725
   2        3.1041
   3        3.1041
   4        4.4627
   5        7.5500
   6        8.7061
   7        8.8838
   8        8.8838
   9       10.0046
  10       10.0046
  11       12.9266
  12       12.9266
  13       13.6697
  14       15.1619
  15       15.3706
  16       15.7800
 
  0.2500000E+00  0.1666667E+00  0.8333333E-01  0.2777778E-01
   1       -2.3648
   2        1.9887
   3        3.3992
   4        4.7529
   5        7.5147
   6        7.9613
   7        8.8497
   8        9.2516
   9       10.2162
  10       10.6065
  11       11.9913
  12       13.1792
  13       13.2019
  14       14.3299
  15       16.0635
  16       16.2593
 
  0.3333333E+00  0.1666667E+00  0.8333333E-01  0.2777778E-01
   1       -1.9352
   2        0.9754
   3        3.8112
   4        5.1569
   5        6.6101
   6        7.9296
   7        8.2995
   8        9.5866
   9       10.6605
  10       11.0919
  11       12.3147
  12       12.3285
  13       13.3833
  14       13.5902
  15       16.1481
  16       16.4579
 
  0.4166667E+00  0.1666667E+00  0.8333333E-01  0.2777778E-01
   1       -1.3846
   2        0.0729
   3        4.3388
   4        5.6134
   5        5.8138
   6        7.0739
   7        8.8092
   8        9.9217
   9       10.4290
  10       11.1779
  11       11.5192
  12       12.5400
  13       13.9822
  14       14.2627
  15       15.3515
  16       16.9598
 
  0.5000000E+00  0.1666667E+00  0.8333333E-01  0.1388889E-01
   1       -0.7146
   2       -0.7146
   3        4.9789
   4        4.9789
   5        6.3287
   6        6.3287
   7        9.4198
   8        9.4198
   9       10.8140
  10       10.8140
  11       11.8042
  12       11.8042
  13       14.6490
  14       14.6490
  15       16.1289
  16       16.1289
 
  0.2500000E+00  0.2500000E+00  0.8333333E-01  0.1388889E-01
   1       -2.0578
   2        2.2866
   3        2.2866
   4        5.0409
   5        6.5056
   6        8.1873
   7        9.1879
   8        9.1879
   9       10.8343
  10       10.8343
  11       12.2827
  12       12.2827
  13       13.2803
  14       14.2016
  15       15.8429
  16       16.1287
 
  0.3333333E+00  0.2500000E+00  0.8333333E-01  0.2777778E-01
   1       -1.6291
   2        1.2754
   3        2.7025
   4        5.3862
   5        5.5917
   6        8.2230
   7        8.5877
   8        9.5946
   9       11.0658
  10       11.5298
  11       12.3271
  12       12.4349
  13       12.8203
  14       13.8342
  15       15.2487
  16       17.0076
 
  0.4166667E+00  0.2500000E+00  0.8333333E-01  0.2777778E-01
   1       -1.0797
   2        0.3749
   3        3.2355
   4        4.6434
   5        5.9830
   6        7.3636
   7        9.1057
   8       10.1112
   9       10.4522
  10       11.4789
  11       11.8128
  12       13.0985
  13       13.1167
  14       14.4455
  15       14.4825
  16       18.3546
 
  0.5000000E+00  0.2500000E+00  0.8333333E-01  0.1388889E-01
   1       -0.4111
   2       -0.4111
   3        3.8838
   4        3.8838
   5        6.6156
   6        6.6156
   7        9.7324
   8        9.7324
   9       10.7396
  10       10.7396
  11       12.4039
  12       12.4039
  13       13.7345
  14       13.7345
  15       16.3926
  16       16.3926
 
  0.3333333E+00  0.3333333E+00  0.8333333E-01  0.1388889E-01
   1       -1.2016
   2        1.6945
   3        1.6945
   4        4.5299
   5        5.8674
   6        8.6273
   7        8.6273
   8        8.9937
   9       11.3689
  10       11.6933
  11       11.6933
  12       13.0407
  13       13.0407
  14       14.3637
  15       14.9468
  16       16.7023
 
  0.4166667E+00  0.3333333E+00  0.8333333E-01  0.2777778E-01
   1       -0.6537
   2        0.7966
   3        2.2316
   4        3.6528
   5        6.3851
   6        7.7677
   7        9.1446
   8        9.5132
   9       10.5170
  10       10.8741
  11       12.2177
  12       13.5195
  13       13.5534
  14       14.7100
  15       14.8524
  16       17.9411
 
  0.5000000E+00  0.3333333E+00  0.8333333E-01  0.1388889E-01
   1        0.0129
   2        0.0129
   3        2.8851
   4        2.8851
   5        7.0196
   6        7.0196
   7        9.7749
   8        9.7749
   9       10.1422
  10       10.1422
  11       12.8359
  12       12.8359
  13       14.0968
  14       14.0968
  15       16.7362
  16       16.7362
 
  0.4166667E+00  0.4166667E+00  0.8333333E-01  0.1388889E-01
   1       -0.1080
   2        1.3370
   3        1.3370
   4        2.7677
   5        6.9046
   6        8.2860
   7        8.2860
   8        9.6621
   9       10.0321
  10       11.3915
  11       11.3915
  12       12.7363
  13       15.3123
  14       15.3123
  15       15.9051
  16       17.7613
 
  0.5000000E+00  0.4166667E+00  0.8333333E-01  0.1388889E-01
   1        0.5563
   2        0.5563
   3        1.9948
   4        1.9948
   5        7.5387
   6        7.5387
   7        8.9178
   8        8.9178
   9       10.6598
  10       10.6598
  11       12.0130
  12       12.0130
  13       15.8006
  14       15.8006
  15       17.1000
  16       17.1000
 
  0.5000000E+00  0.5000000E+00  0.8333333E-01  0.3472222E-02
   1        1.2175
   2        1.2175
   3        1.2175
   4        1.2175
   5        8.1718
   6        8.1718
   7        8.1718
   8        8.1718
   9       11.2848
  10       11.2848
  11       11.2848
  12       11.2848
  13       17.0744
  14       17.0744
  15       17.0744
  16       17.0744
 
  0.1666667E+00  0.1666667E+00  0.1666667E+00  0.4629630E-02
   1       -2.4878
   2        3.2812
   3        3.2812
   4        3.2812
   5        8.7648
   6        8.7648
   7        8.7648
   8        9.1664
   9        9.1664
  10        9.1664
  11       13.8283
  12       13.8283
  13       13.8283
  14       14.2597
  15       15.3380
  16       15.3380
 
  0.2500000E+00  0.1666667E+00  0.1666667E+00  0.1388889E-01
   1       -2.1805
   2        2.1675
   3        3.5758
   4        3.5758
   5        7.7588
   6        7.7588
   7        9.1220
   8        9.3876
   9        9.3876
  10       10.7441
  11       13.2144
  12       13.3442
  13       13.3442
  14       14.0927
  15       15.6296
  16       16.4285
 
  0.3333333E+00  0.1666667E+00  0.1666667E+00  0.1388889E-01
   1       -1.7514
   2        1.1555
   3        3.9870
   4        3.9870
   5        6.7908
   6        6.7908
   7        9.5308
   8        9.7791
   9        9.7791
  10       12.2635
  11       12.4930
  12       12.4992
  13       12.4992
  14       14.4631
  15       16.0331
  16       17.0006
 
  0.4166667E+00  0.1666667E+00  0.1666667E+00  0.1388889E-01
   1       -1.2016
   2        0.2541
   3        4.5119
   4        4.5119
   5        5.9276
   6        5.9276
   7       10.0485
   8       10.2753
   9       10.2753
  10       11.4164
  11       11.7024
  12       11.7024
  13       14.3412
  14       14.9394
  15       16.2092
  16       16.5426
 
  0.5000000E+00  0.1666667E+00  0.1666667E+00  0.6944444E-02
   1       -0.5324
   2       -0.5324
   3        5.0604
   4        5.0604
   5        5.2660
   6        5.2660
   7       10.6773
   8       10.6773
   9       10.7086
  10       10.7086
  11       11.1662
  12       11.1662
  13       15.5216
  14       15.5216
  15       16.2701
  16       16.2701
 
  0.2500000E+00  0.2500000E+00  0.1666667E+00  0.1388889E-01
   1       -1.8739
   2        2.4650
   3        2.4650
   4        3.8695
   5        6.6869
   6        8.0553
   7        8.0553
   8        9.6716
   9       11.0216
  10       11.0216
  11       12.1628
  12       13.6192
  13       13.6192
  14       14.3605
  15       16.0157
  16       16.7084
 
  0.3333333E+00  0.2500000E+00  0.1666667E+00  0.2777778E-01
   1       -1.4457
   2        1.4552
   3        2.8804
   4        4.2779
   5        5.7100
   6        7.0826
   7        8.4614
   8       10.0711
   9       11.2065
  10       11.4032
  11       12.7645
  12       12.7886
  13       13.9984
  14       14.0066
  15       16.5520
  16       17.0954
 
  0.4166667E+00  0.2500000E+00  0.1666667E+00  0.2777778E-01
   1       -0.8970
   2        0.5557
   3        3.4124
   4        4.7200
   5        4.9215
   6        6.2164
   7        8.9804
   8       10.3548
   9       10.5805
  10       11.7357
  11       12.1508
  12       13.2676
  13       14.4148
  14       14.6873
  15       15.7657
  16       17.5821
 
  0.5000000E+00  0.2500000E+00  0.1666667E+00  0.1388889E-01
   1       -0.2292
   2       -0.2292
   3        4.0580
   4        4.0580
   5        5.4635
   6        5.4635
   7        9.6120
   8        9.6120
   9       11.1882
  10       11.1882
  11       12.5834
  12       12.5834
  13       15.0673
  14       15.0673
  15       16.5467
  16       16.5467
 
  0.3333333E+00  0.3333333E+00  0.1666667E+00  0.1388889E-01
   1       -1.0187
   2        1.8738
   3        1.8738
   4        4.6060
   5        4.8051
   6        7.4888
   7        7.4888
   8       10.2454
   9       10.4733
  10       12.9864
  11       12.9864
  12       13.3357
  13       13.3357
  14       15.1062
  15       15.7334
  16       16.8685
 
  0.4166667E+00  0.3333333E+00  0.1666667E+00  0.2777778E-01
   1       -0.4716
   2        0.9770
   3        2.4102
   4        3.8277
   5        5.2301
   6        6.6230
   7        8.0094
   8        9.3897
   9       10.9851
  10       12.3135
  11       13.6291
  12       13.6934
  13       14.8730
  14       14.9460
  15       15.0180
  16       18.0985
 
  0.5000000E+00  0.3333333E+00  0.1666667E+00  0.1388889E-01
   1        0.1943
   2        0.1943
   3        3.0627
   4        3.0627
   5        5.8687
   6        5.8687
   7        8.6436
   8        8.6436
   9       11.6025
  10       11.6025
  11       14.2416
  12       14.2416
  13       14.2633
  14       14.2633
  15       16.8933
  16       16.8933
 
  0.4166667E+00  0.4166667E+00  0.1666667E+00  0.1388889E-01
   1        0.0735
   2        1.5168
   3        1.5168
   4        2.9455
   5        5.7525
   6        7.1452
   7        7.1452
   8        8.5305
   9       11.4970
  10       12.8311
  11       12.8311
  12       14.1537
  13       15.4750
  14       15.4750
  15       16.0650
  16       17.9160
 
  0.5000000E+00  0.4166667E+00  0.1666667E+00  0.1388889E-01
   1        0.7370
   2        0.7370
   3        2.1737
   4        2.1737
   5        6.3920
   6        6.3920
   7        7.7816
   8        7.7816
   9       12.1146
  10       12.1146
  11       13.4441
  12       13.4441
  13       15.9619
  14       15.9619
  15       17.2584
  16       17.2584
 
  0.5000000E+00  0.5000000E+00  0.1666667E+00  0.3472222E-02
   1        1.3975
   2        1.3975
   3        1.3975
   4        1.3975
   5        7.0302
   6        7.0302
   7        7.0302
   8        7.0302
   9       12.7301
  10       12.7301
  11       12.7301
  12       12.7301
  13       17.2348
  14       17.2348
  15       17.2348
  16       17.2348
 
  0.2500000E+00  0.2500000E+00  0.2500000E+00  0.4629630E-02
   1       -1.5679
   2        2.7618
   3        2.7618
   4        2.7618
   5        6.9791
   6        6.9791
   7        6.9791
   8       11.1062
   9       11.3084
  10       11.3084
  11       11.3084
  12       14.6256
  13       14.6256
  14       14.6256
  15       16.3007
  16       16.3007
 
  0.3333333E+00  0.2500000E+00  0.2500000E+00  0.1388889E-01
   1       -1.1406
   2        1.7544
   3        3.1761
   4        3.1761
   5        5.9996
   6        5.9996
   7        7.3859
   8       10.1449
   9       11.7022
  10       11.7022
  11       13.0533
  12       14.2720
  13       14.2720
  14       14.9968
  15       16.6922
  16       17.4448
 
  0.4166667E+00  0.2500000E+00  0.2500000E+00  0.1388889E-01
   1       -0.5930
   2        0.8568
   3        3.7055
   4        3.7055
   5        5.1289
   6        5.1289
   7        7.9072
   8        9.2887
   9       12.1955
  10       12.1955
  11       13.5531
  12       13.5531
  13       14.8885
  14       15.4743
  15       16.7470
  16       17.1792
 
  0.5000000E+00  0.2500000E+00  0.2500000E+00  0.6944444E-02
   1        0.0734
   2        0.0734
   3        4.2654
   4        4.2654
   5        4.4549
   6        4.4549
   7        8.5420
   8        8.5420
   9       12.6440
  10       12.6440
  11       13.0161
  12       13.0161
  13       16.0579
  14       16.0579
  15       16.7944
  16       16.7944
 
  0.3333333E+00  0.3333333E+00  0.2500000E+00  0.1388889E-01
   1       -0.7145
   2        2.1721
   3        2.1721
   4        3.5878
   5        5.0155
   6        6.4072
   7        6.4072
   8        9.1789
   9       12.1002
  10       13.4350
  11       13.4350
  12       14.6565
  13       14.6565
  14       15.3720
  15       17.1375
  16       17.1406
 
  0.4166667E+00  0.3333333E+00  0.2500000E+00  0.2777778E-01
   1       -0.1685
   2        1.2772
   3        2.7073
   4        4.0370
   5        4.2182
   6        5.5358
   7        6.9305
   8        8.3185
   9       12.6023
  10       13.7740
  11       14.0833
  12       15.0772
  13       15.1443
  14       15.3218
  15       16.3993
  16       18.2725
 
  0.5000000E+00  0.3333333E+00  0.2500000E+00  0.1388889E-01
   1        0.4961
   2        0.4961
   3        3.3570
   4        3.3570
   5        4.7777
   6        4.7777
   7        7.5682
   8        7.5682
   9       13.2000
  10       13.2000
  11       14.5426
  12       14.5426
  13       15.7143
  14       15.7143
  15       17.1497
  16       17.1497
 
  0.4166667E+00  0.4166667E+00  0.2500000E+00  0.1388889E-01
   1        0.3756
   2        1.8159
   3        1.8159
   4        3.2403
   5        4.6603
   6        6.0608
   7        6.0608
   8        7.4545
   9       13.1063
  10       14.3950
  11       14.3950
  12       15.6805
  13       15.7452
  14       15.7452
  15       16.3316
  16       18.1642
 
  0.5000000E+00  0.4166667E+00  0.2500000E+00  0.1388889E-01
   1        1.0377
   2        1.0377
   3        2.4714
   4        2.4714
   5        5.3028
   6        5.3028
   7        6.7010
   8        6.7010
   9       13.7088
  10       13.7088
  11       14.9967
  12       14.9967
  13       16.2295
  14       16.2295
  15       17.5194
  16       17.5194
 
  0.5000000E+00  0.5000000E+00  0.2500000E+00  0.3472222E-02
   1        1.6969
   2        1.6969
   3        1.6969
   4        1.6969
   5        5.9449
   6        5.9449
   7        5.9449
   8        5.9449
   9       14.3104
  10       14.3104
  11       14.3104
  12       14.3104
  13       17.5020
  14       17.5020
  15       17.5020
  16       17.5020
 
  0.3333333E+00  0.3333333E+00  0.3333333E+00  0.4629630E-02
   1       -0.2896
   2        2.5886
   3        2.5886
   4        2.5886
   5        5.4229
   6        5.4229
   7        5.4229
   8        8.2081
   9       13.8298
  10       13.8298
  11       13.8298
  12       15.7442
  13       15.7442
  14       15.7442
  15       17.5084
  16       17.5084
 
  0.4166667E+00  0.3333333E+00  0.3333333E+00  0.1388889E-01
   1        0.2549
   2        1.6965
   3        3.1210
   4        3.1210
   5        4.5476
   6        4.5476
   7        5.9485
   8        7.3434
   9       14.3148
  10       14.3148
  11       15.5238
  12       15.5238
  13       15.6388
  14       16.2231
  15       17.4991
  16       17.9493
 
  0.5000000E+00  0.3333333E+00  0.3333333E+00  0.6944444E-02
   1        0.9176
   2        0.9176
   3        3.6940
   4        3.6940
   5        3.8601
   6        3.8601
   7        6.5893
   8        6.5893
   9       14.7803
  10       14.7803
  11       15.0282
  12       15.0282
  13       16.8083
  14       16.8083
  15       17.4923
  16       17.4923
 
  0.4166667E+00  0.4166667E+00  0.3333333E+00  0.1388889E-01
   1        0.7975
   2        2.2336
   3        2.2336
   4        3.5795
   5        3.7399
   6        5.0739
   7        5.0739
   8        6.4748
   9       14.8080
  10       15.9554
  11       15.9554
  12       16.1430
  13       16.1430
  14       16.7049
  15       17.2023
  16       18.4842
 
  0.5000000E+00  0.4166667E+00  0.3333333E+00  0.1388889E-01
   1        1.4577
   2        1.4577
   3        2.8862
   4        2.8862
   5        4.3126
   6        4.3126
   7        5.7174
   8        5.7174
   9       15.3811
  10       15.3811
  11       16.5685
  12       16.5685
  13       16.6009
  14       16.6009
  15       17.8745
  16       17.8745
 
  0.5000000E+00  0.5000000E+00  0.3333333E+00  0.3472222E-02
   1        2.1149
   2        2.1149
   3        2.1149
   4        2.1149
   5        4.9572
   6        4.9572
   7        4.9572
   8        4.9572
   9       15.9582
  10       15.9582
  11       15.9582
  12       15.9582
  13       17.8758
  14       17.8758
  15       17.8758
  16       17.8758
 
  0.4166667E+00  0.4166667E+00  0.4166667E+00  0.4629630E-02
   1        1.3381
   2        2.7679
   3        2.7679
   4        2.7679
   5        4.1960
   6        4.1960
   7        4.1960
   8        5.6022
   9       16.5634
  10       16.5634
  11       16.5634
  12       17.1850
  13       17.1850
  14       17.1850
  15       18.4598
  16       18.4598
 
  0.5000000E+00  0.4166667E+00  0.4166667E+00  0.6944444E-02
   1        1.9959