<?xml version="1.0" encoding="ISO-8859-1"?>
<modeling>
 <generator>
  <i name="program" type="string">vasp</i>
  <i name="version" type="string">4.6.28 </i>
  <i name="subversion" type="string">25Jul05 complex  parallel</i>
  <i name="platform" type="string">LinuxIFC</i>
  <i name="date" type="string">2016 10 19</i>
  <i name="time" type="string">17:41:43</i>
 </generator>
 <incar>
  <i type="string" name="PREC">accurate</i>
  <i type="int" name="IALGO">    38</i>
  <i name="EDIFF">      0.00000001</i>
  <i type="int" name="IBRION">    -1</i>
  <i name="ENCUT">    500.00000000</i>
  <i type="logical" name="LREAL"> F  </i>
  <i type="int" name="ISMEAR">     0</i>
  <i name="SIGMA">      0.01000000</i>
  <i type="logical" name="LWAVE"> F  </i>
  <i type="logical" name="LCHARG"> F  </i>
 </incar>
 <kpoints>
  <generation param="Auto">
   <i name="subdivisionlength">     50.00000000</i>
   <v type="int" name="divisions">      12      12      12</v>
   <v name="usershift">      0.00000000      0.00000000      0.00000000</v>
   <v name="genvec1">      0.08333333      0.00000000      0.00000000</v>
   <v name="genvec2">      0.00000000      0.08333333      0.00000000</v>
   <v name="genvec3">      0.00000000      0.00000000      0.08333333</v>
   <v name="shift">      0.00000000      0.00000000      0.00000000</v>
  </generation>
  <varray name="kpointlist" >
   <v>       0.00000000      0.00000000      0.00000000</v>
   <v>       0.08333333      0.00000000      0.00000000</v>
   <v>       0.16666667      0.00000000      0.00000000</v>
   <v>       0.25000000      0.00000000      0.00000000</v>
   <v>       0.33333333      0.00000000      0.00000000</v>
   <v>       0.41666667      0.00000000      0.00000000</v>
   <v>       0.50000000      0.00000000      0.00000000</v>
   <v>       0.08333333      0.08333333      0.00000000</v>
   <v>       0.16666667      0.08333333      0.00000000</v>
   <v>       0.25000000      0.08333333      0.00000000</v>
   <v>       0.33333333      0.08333333      0.00000000</v>
   <v>       0.41666667      0.08333333      0.00000000</v>
   <v>       0.50000000      0.08333333      0.00000000</v>
   <v>       0.16666667      0.16666667      0.00000000</v>
   <v>       0.25000000      0.16666667      0.00000000</v>
   <v>       0.33333333      0.16666667      0.00000000</v>
   <v>       0.41666667      0.16666667      0.00000000</v>
   <v>       0.50000000      0.16666667      0.00000000</v>
   <v>       0.25000000      0.25000000      0.00000000</v>
   <v>       0.33333333      0.25000000      0.00000000</v>
   <v>       0.41666667      0.25000000      0.00000000</v>
   <v>       0.50000000      0.25000000      0.00000000</v>
   <v>       0.33333333      0.33333333      0.00000000</v>
   <v>       0.41666667      0.33333333      0.00000000</v>
   <v>       0.50000000      0.33333333      0.00000000</v>
   <v>       0.41666667      0.41666667      0.00000000</v>
   <v>       0.50000000      0.41666667      0.00000000</v>
   <v>       0.50000000      0.50000000      0.00000000</v>
   <v>       0.08333333      0.08333333      0.08333333</v>
   <v>       0.16666667      0.08333333      0.08333333</v>
   <v>       0.25000000      0.08333333      0.08333333</v>
   <v>       0.33333333      0.08333333      0.08333333</v>
   <v>       0.41666667      0.08333333      0.08333333</v>
   <v>       0.50000000      0.08333333      0.08333333</v>
   <v>       0.16666667      0.16666667      0.08333333</v>
   <v>       0.25000000      0.16666667      0.08333333</v>
   <v>       0.33333333      0.16666667      0.08333333</v>
   <v>       0.41666667      0.16666667      0.08333333</v>
   <v>       0.50000000      0.16666667      0.08333333</v>
   <v>       0.25000000      0.25000000      0.08333333</v>
   <v>       0.33333333      0.25000000      0.08333333</v>
   <v>       0.41666667      0.25000000      0.08333333</v>
   <v>       0.50000000      0.25000000      0.08333333</v>
   <v>       0.33333333      0.33333333      0.08333333</v>
   <v>       0.41666667      0.33333333      0.08333333</v>
   <v>       0.50000000      0.33333333      0.08333333</v>
   <v>       0.41666667      0.41666667      0.08333333</v>
   <v>       0.50000000      0.41666667      0.08333333</v>
   <v>       0.50000000      0.50000000      0.08333333</v>
   <v>       0.16666667      0.16666667      0.16666667</v>
   <v>       0.25000000      0.16666667      0.16666667</v>
   <v>       0.33333333      0.16666667      0.16666667</v>
   <v>       0.41666667      0.16666667      0.16666667</v>
   <v>       0.50000000      0.16666667      0.16666667</v>
   <v>       0.25000000      0.25000000      0.16666667</v>
   <v>       0.33333333      0.25000000      0.16666667</v>
   <v>       0.41666667      0.25000000      0.16666667</v>
   <v>       0.50000000      0.25000000      0.16666667</v>
   <v>       0.33333333      0.33333333      0.16666667</v>
   <v>       0.41666667      0.33333333      0.16666667</v>
   <v>       0.50000000      0.33333333      0.16666667</v>
   <v>       0.41666667      0.41666667      0.16666667</v>
   <v>       0.50000000      0.41666667      0.16666667</v>
   <v>       0.50000000      0.50000000      0.16666667</v>
   <v>       0.25000000      0.25000000      0.25000000</v>
   <v>       0.33333333      0.25000000      0.25000000</v>
   <v>       0.41666667      0.25000000      0.25000000</v>
   <v>       0.50000000      0.25000000      0.25000000</v>
   <v>       0.33333333      0.33333333      0.25000000</v>
   <v>       0.41666667      0.33333333      0.25000000</v>
   <v>       0.50000000      0.33333333      0.25000000</v>
   <v>       0.41666667      0.41666667      0.25000000</v>
   <v>       0.50000000      0.41666667      0.25000000</v>
   <v>       0.50000000      0.50000000      0.25000000</v>
   <v>       0.33333333      0.33333333      0.33333333</v>
   <v>       0.41666667      0.33333333      0.33333333</v>
   <v>       0.50000000      0.33333333      0.33333333</v>
   <v>       0.41666667      0.41666667      0.33333333</v>
   <v>       0.50000000      0.41666667      0.33333333</v>
   <v>       0.50000000      0.50000000      0.33333333</v>
   <v>       0.41666667      0.41666667      0.41666667</v>
   <v>       0.50000000      0.41666667      0.41666667</v>
   <v>       0.50000000      0.50000000      0.41666667</v>
   <v>       0.50000000      0.50000000      0.50000000</v>
  </varray>
  <varray name="weights" >
   <v>       0.00057870</v>
   <v>       0.00347222</v>
   <v>       0.00347222</v>
   <v>       0.00347222</v>
   <v>       0.00347222</v>
   <v>       0.00347222</v>
   <v>       0.00173611</v>
   <v>       0.00694444</v>
   <v>       0.01388889</v>
   <v>       0.01388889</v>
   <v>       0.01388889</v>
   <v>       0.01388889</v>
   <v>       0.00694444</v>
   <v>       0.00694444</v>
   <v>       0.01388889</v>
   <v>       0.01388889</v>
   <v>       0.01388889</v>
   <v>       0.00694444</v>
   <v>       0.00694444</v>
   <v>       0.01388889</v>
   <v>       0.01388889</v>
   <v>       0.00694444</v>
   <v>       0.00694444</v>
   <v>       0.01388889</v>
   <v>       0.00694444</v>
   <v>       0.00694444</v>
   <v>       0.00694444</v>
   <v>       0.00173611</v>
   <v>       0.00462963</v>
   <v>       0.01388889</v>
   <v>       0.01388889</v>
   <v>       0.01388889</v>
   <v>       0.01388889</v>
   <v>       0.00694444</v>
   <v>       0.01388889</v>
   <v>       0.02777778</v>
   <v>       0.02777778</v>
   <v>       0.02777778</v>
   <v>       0.01388889</v>
   <v>       0.01388889</v>
   <v>       0.02777778</v>
   <v>       0.02777778</v>
   <v>       0.01388889</v>
   <v>       0.01388889</v>
   <v>       0.02777778</v>
   <v>       0.01388889</v>
   <v>       0.01388889</v>
   <v>       0.01388889</v>
   <v>       0.00347222</v>
   <v>       0.00462963</v>
   <v>       0.01388889</v>
   <v>       0.01388889</v>
   <v>       0.01388889</v>
   <v>       0.00694444</v>
   <v>       0.01388889</v>
   <v>       0.02777778</v>
   <v>       0.02777778</v>
   <v>       0.01388889</v>
   <v>       0.01388889</v>
   <v>       0.02777778</v>
   <v>       0.01388889</v>
   <v>       0.01388889</v>
   <v>       0.01388889</v>
   <v>       0.00347222</v>
   <v>       0.00462963</v>
   <v>       0.01388889</v>
   <v>       0.01388889</v>
   <v>       0.00694444</v>
   <v>       0.01388889</v>
   <v>       0.02777778</v>
   <v>       0.01388889</v>
   <v>       0.01388889</v>
   <v>       0.01388889</v>
   <v>       0.00347222</v>
   <v>       0.00462963</v>
   <v>       0.01388889</v>
   <v>       0.00694444</v>
   <v>       0.01388889</v>
   <v>       0.01388889</v>
   <v>       0.00347222</v>
   <v>       0.00462963</v>
   <v>       0.00694444</v>
   <v>       0.00347222</v>
   <v>       0.00057870</v>
  </varray>
 </kpoints>
 <parameters>
  <separator name="general" >
   <i type="string" name="SYSTEM">unknown system</i>
   <i type="logical" name="LCOMPAT"> F  </i>
  </separator>
  <separator name="electronic" >
   <i type="string" name="PREC">accura</i>
   <i name="ENMAX">    500.00000000</i>
   <i name="ENAUG">    291.05200000</i>
   <i name="EDIFF">      0.00000001</i>
   <i type="int" name="IALGO">    38</i>
   <i type="int" name="IWAVPR">    10</i>
   <i type="int" name="NBANDS">    10</i>
   <i name="NELECT">     12.00000000</i>
   <separator name="electronic smearing" >
    <i type="int" name="ISMEAR">     0</i>
    <i name="SIGMA">      0.01000000</i>
   </separator>
   <separator name="electronic projectors" >
    <i type="logical" name="LREAL"> F  </i>
    <v name="ROPT">      0.00000000</v>
    <i type="int" name="LMAXPAW">  -100</i>
    <i type="int" name="LMAXMIX">     2</i>
   </separator>
   <separator name="electronic startup" >
    <i type="int" name="ISTART">     0</i>
    <i type="int" name="ICHARG">     2</i>
    <i type="int" name="INIWAV">     1</i>
   </separator>
   <separator name="electronic spin" >
    <i type="int" name="ISPIN">     1</i>
    <i type="logical" name="LNONCOLLINEAR"> F  </i>
    <v name="MAGMOM">      1.00000000      1.00000000      1.00000000      1.00000000</v>
    <i name="NUPDOWN">     -1.00000000</i>
    <i type="logical" name="LSORBIT"> F  </i>
    <v name="SAXIS">      0.00000000      0.00000000      1.00000000</v>
    <i type="logical" name="LSPIRAL"> F  </i>
    <v name="QSPIRAL">      0.00000000      0.00000000      0.00000000</v>
    <i type="logical" name="LZEROZ"> F  </i>
   </separator>
   <separator name="electronic exchange-correlation" >
    <i type="string" name="GGA">--</i>
    <i type="int" name="VOSKOWN">     0</i>
    <i type="logical" name="LASPH"> F  </i>
    <i type="logical" name="LMETAGGA"> F  </i>
    <i type="string" name="GGA2">--</i>
   </separator>
   <separator name="electronic convergence" >
    <i type="int" name="NELM">    60</i>
    <i type="int" name="NELMDL">     0</i>
    <i type="int" name="NELMIN">     2</i>
    <i name="ENINI">    500.00000000</i>
    <separator name="electronic convergence detail" >
     <i type="logical" name="LDIAG"> T  </i>
     <i name="WEIMIN">      0.00000000</i>
     <i name="EBREAK">      0.00000000</i>
     <i name="DEPER">      0.30000000</i>
     <i type="int" name="NRMM">     4</i>
     <i name="TIME">      0.10000000</i>
    </separator>
   </separator>
   <separator name="electronic mixer" >
    <i name="AMIX">      0.40000000</i>
    <i name="BMIX">      1.00000000</i>
    <i name="AMIN">      0.10000000</i>
    <i name="AMIX_MAG">      1.60000000</i>
    <i name="BMIX_MAG">      1.00000000</i>
    <separator name="electronic mixer details" >
     <i type="int" name="IMIX">     4</i>
     <i type="int" name="MAXMIX">   -45</i>
     <i name="WC">    100.00000000</i>
     <i type="int" name="INIMIX">     1</i>
     <i type="int" name="MIXPRE">     1</i>
     <i type="int" name="MREMOVE">     5</i>
    </separator>
   </separator>
   <separator name="electronic dipolcorrection" >
    <i type="int" name="IDIPOL">     0</i>
    <i type="logical" name="LDIPOL"> F  </i>
    <v name="DIPOL">   -100.00000000</v>
    <i name="EFIELD">      0.00000000</i>
   </separator>
  </separator>
  <separator name="grids" >
   <i type="int" name="NGX">    30</i>
   <i type="int" name="NGY">    30</i>
   <i type="int" name="NGZ">    30</i>
   <i type="int" name="NGXF">    60</i>
   <i type="int" name="NGYF">    60</i>
   <i type="int" name="NGZF">    60</i>
   <i type="logical" name="ADDGRID"> F  </i>
  </separator>
  <separator name="ionic" >
   <i type="int" name="NSW">     0</i>
   <i type="int" name="IBRION">    -1</i>
   <i type="int" name="ISIF">     2</i>
   <i name="PSTRESS">      0.00000000</i>
   <i name="EDIFFG">      0.00000010</i>
   <i type="int" name="NFREE">     0</i>
   <i name="POTIM">      0.50000000</i>
   <i name="SMASS">     -3.00000000</i>
  </separator>
  <separator name="ionic md" >
   <i name="TEBEG">      0.00010000</i>
   <i name="TEEND">      0.00010000</i>
   <i type="int" name="NBLOCK">     1</i>
   <i type="int" name="KBLOCK">     1</i>
   <i type="int" name="NPACO">   256</i>
   <i name="APACO">     16.00000000</i>
  </separator>
  <separator name="symmetry" >
   <i type="int" name="ISYM">     2</i>
   <i name="SYMPREC">      0.00001000</i>
  </separator>
  <separator name="dos" >
   <i type="logical" name="LORBIT"> F  </i>
   <v name="RWIGS">     -1.00000000</v>
   <i type="int" name="NEDOS">   301</i>
   <i name="EMIN">     10.00000000</i>
   <i name="EMAX">    -10.00000000</i>
  </separator>
  <separator name="writing" >
   <i type="int" name="NWRITE">     2</i>
   <i type="logical" name="LWAVE"> F  </i>
   <i type="logical" name="LCHARG"> F  </i>
   <i type="logical" name="LPARD"> F  </i>
   <i type="logical" name="LVTOT"> F  </i>
   <i type="logical" name="LELF"> F  </i>
   <i type="logical" name="LOPTICS"> F  </i>
   <i name="STM">      0.00000000</i>
  </separator>
  <separator name="performance" >
   <i type="int" name="NPAR">     8</i>
   <i type="int" name="NSIM">     4</i>
   <i type="int" name="NBLK">   192</i>
   <i type="logical" name="LPLANE"> T  </i>
   <i type="logical" name="LCRITICAL_MEM"> F  </i>
   <i type="logical" name="LSCALAPACK"> F  </i>
   <i type="logical" name="LSCALU"> F  </i>
   <i type="logical" name="LASYNC"> F  </i>
  </separator>
  <separator name="miscellaneous" >
   <i type="int" name="IDIOT">     3</i>
   <i type="logical" name="LMUSIC"> F  </i>
   <v name="POMASS">     26.98200000</v>
   <i type="logical" name="LCORR"> T  </i>
  </separator>
  <i type="logical" name="LREAL_COMPAT"> F  </i>
  <i type="logical" name="GGA_COMPAT"> T  </i>
  <i type="logical" name="LBERRY"> F  </i>
  <i type="int" name="ICORELEVEL">     0</i>
  <i type="logical" name="LDAU"> F  </i>
  <i type="int" name="I_CONSTRAINED_M">     0</i>
 </parameters>
 <atominfo>
  <atoms>       4</atoms>
  <types>       1</types>
  <array name="atoms" >
   <dimension dim="1">ion</dimension>
   <field type="string">element</field>
   <field type="int">atomtype</field>
   <set>
    <rc><c>Al</c><c>   1</c></rc>
    <rc><c>Al</c><c>   1</c></rc>
    <rc><c>Al</c><c>   1</c></rc>
    <rc><c>Al</c><c>   1</c></rc>
   </set>
  </array>
  <array name="atomtypes" >
   <dimension dim="1">type</dimension>
   <field type="int">atomspertype</field>
   <field type="string">element</field>
   <field>mass</field>
   <field>valence</field>
   <field type="string">pseudopotential</field>
   <set>
    <rc><c>   4</c><c>Al</c><c>     26.98200000</c><c>      3.00000000</c><c> PAW_PBE Al 04Jan2001                   </c></rc>
   </set>
  </array>
 </atominfo>
 <structure name="initialpos" >
  <crystal>
   <varray name="basis" >
    <v>       4.07767943      0.00000000      0.00000000</v>
    <v>       0.00000000      4.07767943      0.00000000</v>
    <v>       0.00000000      0.00000000      4.07767943</v>
   </varray>
   <i name="volume">     67.80149066</i>
   <varray name="rec_basis" >
    <v>       0.24523752      0.00000000      0.00000000</v>
    <v>       0.00000000      0.24523752      0.00000000</v>
    <v>       0.00000000      0.00000000      0.24523752</v>
   </varray>
  </crystal>
  <varray name="positions" >
   <v>       0.50000000      0.50000000      0.00000000</v>
   <v>       0.50000000      0.00000000      0.50000000</v>
   <v>       0.00000000      0.50000000      0.50000000</v>
   <v>       0.00000000      0.00000000      0.00000000</v>
  </varray>
 </structure>
 <calculation>
  <scstep>
   <time name="dav">    1.72    1.77</time>
   <time name="total">    1.77    1.82</time>
   <energy>
    <i name="alphaZ">     -0.79262257</i>
    <i name="ewald">   -291.43504708</i>
    <i name="hartreedc">     -0.44887268</i>
    <i name="XCdc">   -105.15191713</i>
    <i name="pawpsdc">    142.21701965</i>
    <i name="pawaedc">    -14.39593217</i>
    <i name="eentropy">     -0.00003619</i>
    <i name="bandstr">     60.91315158</i>
    <i name="atom">    214.15364153</i>
    <i name="e_fr_energy">      5.05938494</i>
    <i name="e_wo_entrp">      5.05942113</i>
    <i name="e_0_energy">      5.05940303</i>
   </energy>
  </scstep>
  <scstep>
   <time name="dav">    1.69    1.69</time>
   <time name="total">    1.69    1.70</time>
   <energy>
    <i name="e_fr_energy">    -14.38738330</i>
    <i name="e_wo_entrp">    -14.38715768</i>
    <i name="e_0_energy">    -14.38727049</i>
   </energy>
  </scstep>
  <scstep>
   <time name="dav">    1.59    1.59</time>
   <time name="total">    1.59    1.59</time>
   <energy>
    <i name="e_fr_energy">    -15.04255991</i>
    <i name="e_wo_entrp">    -15.04236226</i>
    <i name="e_0_energy">    -15.04246108</i>
   </energy>
  </scstep>
  <scstep>
   <time name="dav">    1.23    1.23</time>
   <time name="total">    1.23    1.23</time>
   <energy>
    <i name="e_fr_energy">    -15.04679993</i>
    <i name="e_wo_entrp">    -15.04660426</i>
    <i name="e_0_energy">    -15.04670209</i>
   </energy>
  </scstep>
  <scstep>
   <time name="dav">    1.32    1.32</time>
   <time name="total">    1.35    1.36</time>
   <energy>
    <i name="e_fr_energy">    -15.04685312</i>
    <i name="e_wo_entrp">    -15.04665746</i>
    <i name="e_0_energy">    -15.04675529</i>
   </energy>
  </scstep>
  <scstep>
   <time name="dav">    0.95    0.95</time>
   <time name="total">    1.02    1.02</time>
   <energy>
    <i name="e_fr_energy">    -14.99492961</i>
    <i name="e_wo_entrp">    -14.99466985</i>
    <i name="e_0_energy">    -14.99479973</i>
   </energy>
  </scstep>
  <scstep>
   <time name="dav">    0.98    0.98</time>
   <time name="total">    1.04    1.04</time>
   <energy>
    <i name="e_fr_energy">    -14.95727069</i>
    <i name="e_wo_entrp">    -14.95692533</i>
    <i name="e_0_energy">    -14.95709801</i>
   </energy>
  </scstep>
  <scstep>
   <time name="dav">    1.17    1.17</time>
   <time name="total">    1.22    1.23</time>
   <energy>
    <i name="e_fr_energy">    -14.95728716</i>
    <i name="e_wo_entrp">    -14.95694118</i>
    <i name="e_0_energy">    -14.95711417</i>
   </energy>
  </scstep>
  <scstep>
   <time name="dav">    2.32    2.32</time>
   <time name="total">    2.41    2.41</time>
   <energy>
    <i name="e_fr_energy">    -14.95728904</i>
    <i name="e_wo_entrp">    -14.95694238</i>
    <i name="e_0_energy">    -14.95711571</i>
   </energy>
  </scstep>
  <scstep>
   <time name="dav">    1.39    1.39</time>
   <time name="total">    1.48    1.48</time>
   <energy>
    <i name="e_fr_energy">    -14.95728809</i>
    <i name="e_wo_entrp">    -14.95694141</i>
    <i name="e_0_energy">    -14.95711475</i>
   </energy>
  </scstep>
  <scstep>
   <time name="dav">    0.91    0.91</time>
   <time name="total">    0.97    0.98</time>
   <energy>
    <i name="e_fr_energy">    -14.95728789</i>
    <i name="e_wo_entrp">    -14.95694120</i>
    <i name="e_0_energy">    -14.95711455</i>
   </energy>
  </scstep>
  <scstep>
   <time name="dav">    0.74    0.74</time>
   <time name="total">    0.82    0.83</time>
   <energy>
    <i name="e_fr_energy">    -14.95728792</i>
    <i name="e_wo_entrp">    -14.95694123</i>
    <i name="e_0_energy">    -14.95711458</i>
   </energy>
  </scstep>
  <scstep>
   <time name="dav">    0.90    0.90</time>
   <time name="total">    0.94    0.95</time>
   <energy>
    <i name="alphaZ">     -0.79262257</i>
    <i name="ewald">   -291.43504708</i>
    <i name="hartreedc">     -0.39842497</i>
    <i name="XCdc">   -104.73973381</i>
    <i name="pawpsdc">    142.34619671</i>
    <i name="pawaedc">    -14.55840700</i>
    <i name="eentropy">     -0.00034669</i>
    <i name="bandstr">     40.46745596</i>
    <i name="atom">    214.15364153</i>
    <i name="e_fr_energy">    -14.95728793</i>
    <i name="e_wo_entrp">    -14.95694124</i>
    <i name="e_0_energy">    -14.95711458</i>
   </energy>
  </scstep>
  <structure>
   <crystal>
    <varray name="basis" >
     <v>       4.07767943      0.00000000      0.00000000</v>
     <v>       0.00000000      4.07767943      0.00000000</v>
     <v>       0.00000000      0.00000000      4.07767943</v>
    </varray>
    <i name="volume">     67.80149066</i>
    <varray name="rec_basis" >
     <v>       0.24523752      0.00000000      0.00000000</v>
     <v>       0.00000000      0.24523752      0.00000000</v>
     <v>       0.00000000      0.00000000      0.24523752</v>
    </varray>
   </crystal>
   <varray name="positions" >
    <v>       0.50000000      0.50000000      0.00000000</v>
    <v>       0.50000000      0.00000000      0.50000000</v>
    <v>       0.00000000      0.50000000      0.50000000</v>
    <v>       0.00000000      0.00000000      0.00000000</v>
   </varray>
  </structure>
  <varray name="forces" >
   <v>       0.00000000      0.00000000      0.00000000</v>
   <v>       0.00000000      0.00000000      0.00000000</v>
   <v>      -0.00000000      0.00000000      0.00000000</v>
   <v>       0.00000000      0.00000000      0.00000000</v>
  </varray>
  <varray name="stress" >
   <v>     -20.25699068      0.00000000     -0.00000000</v>
   <v>      -0.00000000    -20.25699068     -0.00000000</v>
   <v>       0.00000000     -0.00000000    -20.25699068</v>
  </varray>
  <energy>
   <i name="e_fr_energy">    -14.95728793</i>
   <i name="e_wo_entrp">    -14.95711458</i>
   <i name="e_0_energy">     -0.00034669</i>
  </energy>
  <eigenvalues>
   <array>
    <dimension dim="1">band</dimension>
    <dimension dim="2">kpoint</dimension>
    <dimension dim="3">spin</dimension>
    <field>eigene</field>
    <field>occ</field>
    <set>
     <set comment="spin 1">
      <set comment="kpoint 1">
       <r>  -3.2279  1.0000</r>
       <r>   4.8628  1.0000</r>
       <r>   4.8628  1.0000</r>
       <r>   4.8628  1.0000</r>
       <r>   6.1243  1.0000</r>
       <r>   6.1243  1.0000</r>
       <r>   6.1243  1.0000</r>
       <r>  12.9725  0.0000</r>
       <r>  12.9725  0.0000</r>
       <r>  12.9725  0.0000</r>
       <r>  13.1918  0.0000</r>
       <r>  13.1918  0.0000</r>
       <r>  13.1918  0.0000</r>
       <r>  13.1918  0.0000</r>
       <r>  13.1918  0.0000</r>
       <r>  13.1918  0.0000</r>
      </set>
      <set comment="kpoint 2">
       <r>  -3.1661  1.0000</r>
       <r>   3.9968  1.0000</r>
       <r>   4.9196  1.0000</r>
       <r>   4.9196  1.0000</r>
       <r>   6.1845  1.0000</r>
       <r>   6.1845  1.0000</r>
       <r>   7.0979  1.0000</r>
       <r>  11.7614  0.0000</r>
       <r>  11.7614  0.0000</r>
       <r>  12.7545  0.0000</r>
       <r>  12.7545  0.0000</r>
       <r>  13.0335  0.0000</r>
       <r>  13.2446  0.0000</r>
       <r>  13.2446  0.0000</r>
       <r>  14.5171  0.0000</r>
       <r>  14.5171  0.0000</r>
      </set>
      <set comment="kpoint 3">
       <r>  -2.9808  1.0000</r>
       <r>   2.8085  1.0000</r>
       <r>   5.0899  1.0000</r>
       <r>   5.0899  1.0000</r>
       <r>   6.3644  1.0000</r>
       <r>   6.3644  1.0000</r>
       <r>   8.6086  0.0000</r>
       <r>  10.5622  0.0000</r>
       <r>  10.5622  0.0000</r>
       <r>  11.8603  0.0000</r>
       <r>  11.8603  0.0000</r>
       <r>  13.2163  0.0000</r>
       <r>  13.4028  0.0000</r>
       <r>  13.4028  0.0000</r>
       <r>  16.0587  0.0000</r>
       <r>  16.0587  0.0000</r>
      </set>
      <set comment="kpoint 4">
       <r>  -2.6725  1.0000</r>
       <r>   1.6903  1.0000</r>
       <r>   5.3738  1.0000</r>
       <r>   5.3738  1.0000</r>
       <r>   6.6615  1.0000</r>
       <r>   6.6615  1.0000</r>
       <r>   9.4767  0.0000</r>
       <r>   9.4767  0.0000</r>
       <r>  10.2636  0.0000</r>
       <r>  10.8918  0.0000</r>
       <r>  10.8918  0.0000</r>
       <r>  13.5205  0.0000</r>
       <r>  13.6667  0.0000</r>
       <r>  13.6667  0.0000</r>
       <r>  17.0435  0.0000</r>
       <r>  17.4582  0.0000</r>
      </set>
      <set comment="kpoint 5">
       <r>  -2.2419  1.0000</r>
       <r>   0.6747  1.0000</r>
       <r>   5.7716  1.0000</r>
       <r>   5.7716  1.0000</r>
       <r>   7.0696  1.0000</r>
       <r>   7.0696  1.0000</r>
       <r>   8.5061  0.0000</r>
       <r>   8.5061  0.0000</r>
       <r>   9.9716  0.0000</r>
       <r>   9.9716  0.0000</r>
       <r>  12.0289  0.0000</r>
       <r>  13.9455  0.0000</r>
       <r>  14.0364  0.0000</r>
       <r>  14.0364  0.0000</r>
       <r>  16.5682  0.0000</r>
       <r>  16.5682  0.0000</r>
      </set>
      <set comment="kpoint 6">
       <r>  -1.6902  1.0000</r>
       <r>  -0.2297  1.0000</r>
       <r>   6.2835  1.0000</r>
       <r>   6.2835  1.0000</r>
       <r>   7.5660  1.0000</r>
       <r>   7.5660  1.0000</r>
       <r>   7.6504  1.0000</r>
       <r>   7.6504  1.0000</r>
       <r>   9.1594  0.0000</r>
       <r>   9.1594  0.0000</r>
       <r>  13.8935  0.0000</r>
       <r>  14.4899  0.0000</r>
       <r>  14.5117  0.0000</r>
       <r>  14.5117  0.0000</r>
       <r>  15.7786  0.0000</r>
       <r>  15.7786  0.0000</r>
      </set>
      <set comment="kpoint 7">
       <r>  -1.0188  1.0000</r>
       <r>  -1.0188  1.0000</r>
       <r>   6.9096  1.0000</r>
       <r>   6.9096  1.0000</r>
       <r>   6.9096  1.0000</r>
       <r>   6.9096  1.0000</r>
       <r>   7.9387  0.0000</r>
       <r>   7.9387  0.0000</r>
       <r>   8.6801  0.0000</r>
       <r>   8.6801  0.0000</r>
       <r>  15.0926  0.0000</r>
       <r>  15.0926  0.0000</r>
       <r>  15.0926  0.0000</r>
       <r>  15.0926  0.0000</r>
       <r>  15.1516  0.0000</r>
       <r>  15.1516  0.0000</r>
      </set>
      <set comment="kpoint 8">
       <r>  -3.1043  1.0000</r>
       <r>   4.0551  1.0000</r>
       <r>   4.0551  1.0000</r>
       <r>   4.9763  1.0000</r>
       <r>   6.2444  1.0000</r>
       <r>   7.1563  1.0000</r>
       <r>   7.1563  1.0000</r>
       <r>  10.9069  0.0000</r>
       <r>  11.8187  0.0000</r>
       <r>  11.8187  0.0000</r>
       <r>  12.8086  0.0000</r>
       <r>  12.8086  0.0000</r>
       <r>  13.2980  0.0000</r>
       <r>  14.4382  0.0000</r>
       <r>  14.5735  0.0000</r>
       <r>  14.5735  0.0000</r>
      </set>
      <set comment="kpoint 9">
       <r>  -2.9191  1.0000</r>
       <r>   2.8677  1.0000</r>
       <r>   4.2299  1.0000</r>
       <r>   5.1467  1.0000</r>
       <r>   6.4233  1.0000</r>
       <r>   7.3309  1.0000</r>
       <r>   8.6655  0.0000</r>
       <r>   9.7656  0.0000</r>
       <r>  10.6193  0.0000</r>
       <r>  11.9165  0.0000</r>
       <r>  11.9904  0.0000</r>
       <r>  12.7065  0.0000</r>
       <r>  12.9707  0.0000</r>
       <r>  14.7427  0.0000</r>
       <r>  15.5523  0.0000</r>
       <r>  16.1150  0.0000</r>
      </set>
      <set comment="kpoint 10">
       <r>  -2.6109  1.0000</r>
       <r>   1.7500  1.0000</r>
       <r>   4.5209  1.0000</r>
       <r>   5.4306  1.0000</r>
       <r>   6.7169  1.0000</r>
       <r>   7.6190  1.0000</r>
       <r>   8.6995  0.0000</r>
       <r>   9.5338  0.0000</r>
       <r>  10.3182  0.0000</r>
       <r>  10.9510  0.0000</r>
       <r>  11.7628  0.0000</r>
       <r>  12.2762  0.0000</r>
       <r>  13.2410  0.0000</r>
       <r>  15.0246  0.0000</r>
       <r>  16.3325  0.0000</r>
       <r>  17.0364  0.0000</r>
      </set>
      <set comment="kpoint 11">
       <r>  -2.1805  1.0000</r>
       <r>   0.7349  1.0000</r>
       <r>   4.9275  1.0000</r>
       <r>   5.8285  1.0000</r>
       <r>   7.0959  1.0000</r>
       <r>   7.7642  0.0000</r>
       <r>   8.0114  0.0000</r>
       <r>   8.5631  0.0000</r>
       <r>  10.0384  0.0000</r>
       <r>  10.8465  0.0000</r>
       <r>  12.0782  0.0000</r>
       <r>  12.6757  0.0000</r>
       <r>  13.6211  0.0000</r>
       <r>  15.3878  0.0000</r>
       <r>  15.4190  0.0000</r>
       <r>  16.1552  0.0000</r>
      </set>
      <set comment="kpoint 12">
       <r>  -1.6290  1.0000</r>
       <r>  -0.1691  1.0000</r>
       <r>   5.4484  1.0000</r>
       <r>   6.3403  1.0000</r>
       <r>   6.8092  1.0000</r>
       <r>   7.7074  0.5542</r>
       <r>   7.7101  0.4019</r>
       <r>   8.4435  0.0000</r>
       <r>   9.2815  0.0000</r>
       <r>  10.0193  0.0000</r>
       <r>  13.1881  0.0000</r>
       <r>  13.8832  0.0000</r>
       <r>  14.1609  0.0000</r>
       <r>  14.5462  0.0000</r>
       <r>  15.3646  0.0000</r>
       <r>  15.9253  0.0000</r>
      </set>
      <set comment="kpoint 13">
       <r>  -0.9579  1.0000</r>
       <r>  -0.9579  1.0000</r>
       <r>   6.0808  1.0000</r>
       <r>   6.0808  1.0000</r>
       <r>   6.9666  1.0000</r>
       <r>   6.9666  1.0000</r>
       <r>   8.2764  0.0000</r>
       <r>   8.2764  0.0000</r>
       <r>   9.3355  0.0000</r>
       <r>   9.3355  0.0000</r>
       <r>  13.8121  0.0000</r>
       <r>  13.8121  0.0000</r>
       <r>  14.6690  0.0000</r>
       <r>  14.6690  0.0000</r>
       <r>  15.9137  0.0000</r>
       <r>  15.9137  0.0000</r>
      </set>
      <set comment="kpoint 14">
       <r>  -2.7341  1.0000</r>
       <r>   3.0451  1.0000</r>
       <r>   3.0451  1.0000</r>
       <r>   5.3170  1.0000</r>
       <r>   6.5975  1.0000</r>
       <r>   8.6395  0.0000</r>
       <r>   8.8348  0.0000</r>
       <r>   8.8348  0.0000</r>
       <r>  10.7907  0.0000</r>
       <r>  10.7907  0.0000</r>
       <r>  12.0855  0.0000</r>
       <r>  12.0855  0.0000</r>
       <r>  13.6168  0.0000</r>
       <r>  15.1030  0.0000</r>
       <r>  16.2191  0.0000</r>
       <r>  16.2839  0.0000</r>
      </set>
      <set comment="kpoint 15">
       <r>  -2.4263  1.0000</r>
       <r>   1.9291  1.0000</r>
       <r>   3.3402  1.0000</r>
       <r>   5.6011  1.0000</r>
       <r>   6.8580  1.0000</r>
       <r>   7.6052  1.0000</r>
       <r>   9.1096  0.0000</r>
       <r>   9.7050  0.0000</r>
       <r>  10.4776  0.0000</r>
       <r>  11.0762  0.0000</r>
       <r>  11.1320  0.0000</r>
       <r>  12.3703  0.0000</r>
       <r>  13.1242  0.0000</r>
       <r>  15.1584  0.0000</r>
       <r>  16.1813  0.0000</r>
       <r>  16.2027  0.0000</r>
      </set>
      <set comment="kpoint 16">
       <r>  -1.9965  1.0000</r>
       <r>   0.9153  1.0000</r>
       <r>   3.7525  1.0000</r>
       <r>   5.9990  1.0000</r>
       <r>   6.5135  1.0000</r>
       <r>   7.3900  1.0000</r>
       <r>   8.7342  0.0000</r>
       <r>   9.4391  0.0000</r>
       <r>  10.2781  0.0000</r>
       <r>  11.4756  0.0000</r>
       <r>  12.1861  0.0000</r>
       <r>  12.2717  0.0000</r>
       <r>  12.8078  0.0000</r>
       <r>  14.2014  0.0000</r>
       <r>  15.3050  0.0000</r>
       <r>  16.9570  0.0000</r>
      </set>
      <set comment="kpoint 17">
       <r>  -1.4457  1.0000</r>
       <r>   0.0124  1.0000</r>
       <r>   4.2806  1.0000</r>
       <r>   5.6747  1.0000</r>
       <r>   6.5110  1.0000</r>
       <r>   7.8784  0.0000</r>
       <r>   7.8888  0.0000</r>
       <r>   9.2081  0.0000</r>
       <r>  10.1773  0.0000</r>
       <r>  11.4600  0.0000</r>
       <r>  11.9886  0.0000</r>
       <r>  13.1817  0.0000</r>
       <r>  13.3526  0.0000</r>
       <r>  14.1624  0.0000</r>
       <r>  14.5092  0.0000</r>
       <r>  17.4588  0.0000</r>
      </set>
      <set comment="kpoint 18">
       <r>  -0.7754  1.0000</r>
       <r>  -0.7754  1.0000</r>
       <r>   4.9228  1.0000</r>
       <r>   4.9228  1.0000</r>
       <r>   7.1374  1.0000</r>
       <r>   7.1374  1.0000</r>
       <r>   8.5157  0.0000</r>
       <r>   8.5157  0.0000</r>
       <r>  10.7449  0.0000</r>
       <r>  10.7449  0.0000</r>
       <r>  12.6146  0.0000</r>
       <r>  12.6146  0.0000</r>
       <r>  13.8043  0.0000</r>
       <r>  13.8043  0.0000</r>
       <r>  16.0797  0.0000</r>
       <r>  16.0797  0.0000</r>
      </set>
      <set comment="kpoint 19">
       <r>  -2.1192  1.0000</r>
       <r>   2.2270  1.0000</r>
       <r>   2.2270  1.0000</r>
       <r>   5.8853  1.0000</r>
       <r>   6.4072  1.0000</r>
       <r>   7.2764  1.0000</r>
       <r>   9.9904  0.0000</r>
       <r>   9.9904  0.0000</r>
       <r>  10.6959  0.0000</r>
       <r>  10.6959  0.0000</r>
       <r>  11.4746  0.0000</r>
       <r>  11.4746  0.0000</r>
       <r>  14.0864  0.0000</r>
       <r>  14.1486  0.0000</r>
       <r>  15.2594  0.0000</r>
       <r>  15.7850  0.0000</r>
      </set>
      <set comment="kpoint 20">
       <r>  -1.6902  1.0000</r>
       <r>   1.2155  1.0000</r>
       <r>   2.6432  1.0000</r>
       <r>   5.4563  1.0000</r>
       <r>   6.2834  1.0000</r>
       <r>   7.6612  1.0000</r>
       <r>   9.0194  0.0000</r>
       <r>  10.3551  0.0000</r>
       <r>  10.3898  0.0000</r>
       <r>  11.2890  0.0000</r>
       <r>  11.6965  0.0000</r>
       <r>  12.6219  0.0000</r>
       <r>  13.1228  0.0000</r>
       <r>  13.7794  0.0000</r>
       <r>  14.3787  0.0000</r>
       <r>  16.9522  0.0000</r>
      </set>
      <set comment="kpoint 21">
       <r>  -1.1406  1.0000</r>
       <r>   0.3145  1.0000</r>
       <r>   3.1764  1.0000</r>
       <r>   4.5870  1.0000</r>
       <r>   6.7956  1.0000</r>
       <r>   8.1634  0.0000</r>
       <r>   8.1855  0.0000</r>
       <r>   9.5600  0.0000</r>
       <r>  10.9031  0.0000</r>
       <r>  11.7460  0.0000</r>
       <r>  12.2435  0.0000</r>
       <r>  12.2703  0.0000</r>
       <r>  13.0423  0.0000</r>
       <r>  13.5747  0.0000</r>
       <r>  14.4253  0.0000</r>
       <r>  18.3045  0.0000</r>
      </set>
      <set comment="kpoint 22">
       <r>  -0.4717  1.0000</r>
       <r>  -0.4717  1.0000</r>
       <r>   3.8252  1.0000</r>
       <r>   3.8252  1.0000</r>
       <r>   7.4222  1.0000</r>
       <r>   7.4222  1.0000</r>
       <r>   8.8229  0.0000</r>
       <r>   8.8229  0.0000</r>
       <r>  11.5301  0.0000</r>
       <r>  11.5301  0.0000</r>
       <r>  12.3456  0.0000</r>
       <r>  12.3456  0.0000</r>
       <r>  12.8617  0.0000</r>
       <r>  12.8617  0.0000</r>
       <r>  16.3403  0.0000</r>
       <r>  16.3403  0.0000</r>
      </set>
      <set comment="kpoint 23">
       <r>  -1.2626  1.0000</r>
       <r>   1.6347  1.0000</r>
       <r>   1.6347  1.0000</r>
       <r>   4.4734  1.0000</r>
       <r>   6.6817  1.0000</r>
       <r>   8.0710  0.0000</r>
       <r>   9.4188  0.0000</r>
       <r>   9.4188  0.0000</r>
       <r>  10.8115  0.0000</r>
       <r>  10.8115  0.0000</r>
       <r>  12.1555  0.0000</r>
       <r>  12.9778  0.0000</r>
       <r>  12.9778  0.0000</r>
       <r>  13.4901  0.0000</r>
       <r>  14.8937  0.0000</r>
       <r>  16.6464  0.0000</r>
      </set>
      <set comment="kpoint 24">
       <r>  -0.7145  1.0000</r>
       <r>   0.7364  1.0000</r>
       <r>   2.1720  1.0000</r>
       <r>   3.5941  1.0000</r>
       <r>   7.1942  1.0000</r>
       <r>   8.5625  0.0000</r>
       <r>   8.5985  0.0000</r>
       <r>   9.9322  0.0000</r>
       <r>   9.9788  0.0000</r>
       <r>  11.3008  0.0000</r>
       <r>  11.3345  0.0000</r>
       <r>  12.6774  0.0000</r>
       <r>  13.4625  0.0000</r>
       <r>  14.6555  0.0000</r>
       <r>  14.7973  0.0000</r>
       <r>  17.8881  0.0000</r>
      </set>
      <set comment="kpoint 25">
       <r>  -0.0476  1.0000</r>
       <r>  -0.0476  1.0000</r>
       <r>   2.8259  1.0000</r>
       <r>   2.8259  1.0000</r>
       <r>   7.8211  0.0000</r>
       <r>   7.8211  0.0000</r>
       <r>   9.2369  0.0000</r>
       <r>   9.2369  0.0000</r>
       <r>  10.5596  0.0000</r>
       <r>  10.5596  0.0000</r>
       <r>  11.9564  0.0000</r>
       <r>  11.9564  0.0000</r>
       <r>  14.0413  0.0000</r>
       <r>  14.0413  0.0000</r>
       <r>  16.6834  0.0000</r>
       <r>  16.6834  0.0000</r>
      </set>
      <set comment="kpoint 26">
       <r>  -0.1685  1.0000</r>
       <r>   1.2771  1.0000</r>
       <r>   1.2771  1.0000</r>
       <r>   2.7084  1.0000</r>
       <r>   7.7070  0.5766</r>
       <r>   9.0758  0.0000</r>
       <r>   9.0758  0.0000</r>
       <r>   9.1249  0.0000</r>
       <r>  10.4451  0.0000</r>
       <r>  10.5007  0.0000</r>
       <r>  10.5007  0.0000</r>
       <r>  11.8561  0.0000</r>
       <r>  15.2579  0.0000</r>
       <r>  15.2579  0.0000</r>
       <r>  15.8518  0.0000</r>
       <r>  17.7089  0.0000</r>
      </set>
      <set comment="kpoint 27">
       <r>   0.4960  1.0000</r>
       <r>   0.4960  1.0000</r>
       <r>   1.9351  1.0000</r>
       <r>   1.9351  1.0000</r>
       <r>   8.3342  0.0000</r>
       <r>   8.3342  0.0000</r>
       <r>   9.7034  0.0000</r>
       <r>   9.7034  0.0000</r>
       <r>   9.7610  0.0000</r>
       <r>   9.7610  0.0000</r>
       <r>  11.1278  0.0000</r>
       <r>  11.1278  0.0000</r>
       <r>  15.7467  0.0000</r>
       <r>  15.7467  0.0000</r>
       <r>  17.0469  0.0000</r>
       <r>  17.0469  0.0000</r>
      </set>
      <set comment="kpoint 28">
       <r>   1.1575  1.0000</r>
       <r>   1.1575  1.0000</r>
       <r>   1.1575  1.0000</r>
       <r>   1.1575  1.0000</r>
       <r>   8.9616  0.0000</r>
       <r>   8.9616  0.0000</r>
       <r>   8.9616  0.0000</r>
       <r>   8.9616  0.0000</r>
       <r>  10.3930  0.0000</r>
       <r>  10.3930  0.0000</r>
       <r>  10.3930  0.0000</r>
       <r>  10.3930  0.0000</r>
       <r>  17.0210  0.0000</r>
       <r>  17.0210  0.0000</r>
       <r>  17.0210  0.0000</r>
       <r>  17.0210  0.0000</r>
      </set>
      <set comment="kpoint 29">
       <r>  -3.0426  1.0000</r>
       <r>   4.1134  1.0000</r>
       <r>   4.1134  1.0000</r>
       <r>   4.1134  1.0000</r>
       <r>   7.2144  1.0000</r>
       <r>   7.2144  1.0000</r>
       <r>   7.2144  1.0000</r>
       <r>  10.9643  0.0000</r>
       <r>  10.9643  0.0000</r>
       <r>  10.9643  0.0000</r>
       <r>  13.3508  0.0000</r>
       <r>  13.3508  0.0000</r>
       <r>  13.3508  0.0000</r>
       <r>  14.4967  0.0000</r>
       <r>  14.4967  0.0000</r>
       <r>  14.4967  0.0000</r>
      </set>
      <set comment="kpoint 30">
       <r>  -2.8574  1.0000</r>
       <r>   2.9268  1.0000</r>
       <r>   4.2882  1.0000</r>
       <r>   4.2882  1.0000</r>
       <r>   7.3875  1.0000</r>
       <r>   7.3875  1.0000</r>
       <r>   8.7214  0.0000</r>
       <r>   9.8243  0.0000</r>
       <r>   9.8243  0.0000</r>
       <r>  11.1369  0.0000</r>
       <r>  12.7615  0.0000</r>
       <r>  12.7615  0.0000</r>
       <r>  13.5092  0.0000</r>
       <r>  14.6719  0.0000</r>
       <r>  15.6093  0.0000</r>
       <r>  15.6093  0.0000</r>
      </set>
      <set comment="kpoint 31">
       <r>  -2.5493  1.0000</r>
       <r>   1.8097  1.0000</r>
       <r>   4.5790  1.0000</r>
       <r>   4.5790  1.0000</r>
       <r>   7.6669  1.0000</r>
       <r>   7.6669  1.0000</r>
       <r>   8.7648  0.0000</r>
       <r>   8.7648  0.0000</r>
       <r>  10.3678  0.0000</r>
       <r>  11.4280  0.0000</r>
       <r>  11.8197  0.0000</r>
       <r>  11.8197  0.0000</r>
       <r>  13.7732  0.0000</r>
       <r>  14.9630  0.0000</r>
       <r>  15.4494  0.0000</r>
       <r>  17.1806  0.0000</r>
      </set>
      <set comment="kpoint 32">
       <r>  -2.1191  1.0000</r>
       <r>   0.7951  1.0000</r>
       <r>   4.9851  1.0000</r>
       <r>   4.9851  1.0000</r>
       <r>   7.7072  0.5653</r>
       <r>   7.7072  0.5653</r>
       <r>   8.1576  0.0000</r>
       <r>   8.1576  0.0000</r>
       <r>  10.9064  0.0000</r>
       <r>  10.9064  0.0000</r>
       <r>  11.7793  0.0000</r>
       <r>  12.1767  0.0000</r>
       <r>  14.1430  0.0000</r>
       <r>  14.5105  0.0000</r>
       <r>  15.3686  0.0000</r>
       <r>  16.6764  0.0000</r>
      </set>
      <set comment="kpoint 33">
       <r>  -1.5679  1.0000</r>
       <r>  -0.1086  1.0000</r>
       <r>   5.5044  1.0000</r>
       <r>   5.5044  1.0000</r>
       <r>   6.8960  1.0000</r>
       <r>   6.8960  1.0000</r>
       <r>   8.6102  0.0000</r>
       <r>   8.6102  0.0000</r>
       <r>  10.0898  0.0000</r>
       <r>  10.0898  0.0000</r>
       <r>  12.3163  0.0000</r>
       <r>  13.6727  0.0000</r>
       <r>  14.0094  0.0000</r>
       <r>  14.6186  0.0000</r>
       <r>  15.8863  0.0000</r>
       <r>  15.8864  0.0000</r>
      </set>
      <set comment="kpoint 34">
       <r>  -0.8971  1.0000</r>
       <r>  -0.8971  1.0000</r>
       <r>   6.0579  1.0000</r>
       <r>   6.0579  1.0000</r>
       <r>   6.2329  1.0000</r>
       <r>   6.2329  1.0000</r>
       <r>   9.0212  0.0000</r>
       <r>   9.0212  0.0000</r>
       <r>   9.5683  0.0000</r>
       <r>   9.5683  0.0000</r>
       <r>  12.9408  0.0000</r>
       <r>  12.9408  0.0000</r>
       <r>  15.1999  0.0000</r>
       <r>  15.1999  0.0000</r>
       <r>  15.9469  0.0000</r>
       <r>  15.9469  0.0000</r>
      </set>
      <set comment="kpoint 35">
       <r>  -2.6725  1.0000</r>
       <r>   3.1041  1.0000</r>
       <r>   3.1041  1.0000</r>
       <r>   4.4627  1.0000</r>
       <r>   7.5500  1.0000</r>
       <r>   8.7061  0.0000</r>
       <r>   8.8838  0.0000</r>
       <r>   8.8838  0.0000</r>
       <r>  10.0046  0.0000</r>
       <r>  10.0046  0.0000</r>
       <r>  12.9266  0.0000</r>
       <r>  12.9266  0.0000</r>
       <r>  13.6697  0.0000</r>
       <r>  15.1619  0.0000</r>
       <r>  15.3706  0.0000</r>
       <r>  15.7800  0.0000</r>
      </set>
      <set comment="kpoint 36">
       <r>  -2.3648  1.0000</r>
       <r>   1.9887  1.0000</r>
       <r>   3.3992  1.0000</r>
       <r>   4.7529  1.0000</r>
       <r>   7.5147  1.0000</r>
       <r>   7.9613  0.0000</r>
       <r>   8.8497  0.0000</r>
       <r>   9.2516  0.0000</r>
       <r>  10.2162  0.0000</r>
       <r>  10.6065  0.0000</r>
       <r>  11.9913  0.0000</r>
       <r>  13.1792  0.0000</r>
       <r>  13.2019  0.0000</r>
       <r>  14.3299  0.0000</r>
       <r>  16.0635  0.0000</r>
       <r>  16.2593  0.0000</r>
      </set>
      <set comment="kpoint 37">
       <r>  -1.9352  1.0000</r>
       <r>   0.9754  1.0000</r>
       <r>   3.8112  1.0000</r>
       <r>   5.1569  1.0000</r>
       <r>   6.6101  1.0000</r>
       <r>   7.9296  0.0000</r>
       <r>   8.2995  0.0000</r>
       <r>   9.5866  0.0000</r>
       <r>  10.6605  0.0000</r>
       <r>  11.0919  0.0000</r>
       <r>  12.3147  0.0000</r>
       <r>  12.3285  0.0000</r>
       <r>  13.3833  0.0000</r>
       <r>  13.5902  0.0000</r>
       <r>  16.1481  0.0000</r>
       <r>  16.4579  0.0000</r>
      </set>
      <set comment="kpoint 38">
       <r>  -1.3846  1.0000</r>
       <r>   0.0729  1.0000</r>
       <r>   4.3388  1.0000</r>
       <r>   5.6134  1.0000</r>
       <r>   5.8138  1.0000</r>
       <r>   7.0739  1.0000</r>
       <r>   8.8092  0.0000</r>
       <r>   9.9217  0.0000</r>
       <r>  10.4290  0.0000</r>
       <r>  11.1779  0.0000</r>
       <r>  11.5192  0.0000</r>
       <r>  12.5400  0.0000</r>
       <r>  13.9822  0.0000</r>
       <r>  14.2627  0.0000</r>
       <r>  15.3515  0.0000</r>
       <r>  16.9598  0.0000</r>
      </set>
      <set comment="kpoint 39">
       <r>  -0.7146  1.0000</r>
       <r>  -0.7146  1.0000</r>
       <r>   4.9789  1.0000</r>
       <r>   4.9789  1.0000</r>
       <r>   6.3287  1.0000</r>
       <r>   6.3287  1.0000</r>
       <r>   9.4198  0.0000</r>
       <r>   9.4198  0.0000</r>
       <r>  10.8140  0.0000</r>
       <r>  10.8140  0.0000</r>
       <r>  11.8042  0.0000</r>
       <r>  11.8042  0.0000</r>
       <r>  14.6490  0.0000</r>
       <r>  14.6490  0.0000</r>
       <r>  16.1289  0.0000</r>
       <r>  16.1289  0.0000</r>
      </set>
      <set comment="kpoint 40">
       <r>  -2.0578  1.0000</r>
       <r>   2.2866  1.0000</r>
       <r>   2.2866  1.0000</r>
       <r>   5.0409  1.0000</r>
       <r>   6.5056  1.0000</r>
       <r>   8.1873  0.0000</r>
       <r>   9.1879  0.0000</r>
       <r>   9.1879  0.0000</r>
       <r>  10.8343  0.0000</r>
       <r>  10.8343  0.0000</r>
       <r>  12.2827  0.0000</r>
       <r>  12.2827  0.0000</r>
       <r>  13.2803  0.0000</r>
       <r>  14.2016  0.0000</r>
       <r>  15.8429  0.0000</r>
       <r>  16.1287  0.0000</r>
      </set>
      <set comment="kpoint 41">
       <r>  -1.6291  1.0000</r>
       <r>   1.2754  1.0000</r>
       <r>   2.7025  1.0000</r>
       <r>   5.3862  1.0000</r>
       <r>   5.5917  1.0000</r>
       <r>   8.2230  0.0000</r>
       <r>   8.5877  0.0000</r>
       <r>   9.5946  0.0000</r>
       <r>  11.0658  0.0000</r>
       <r>  11.5298  0.0000</r>
       <r>  12.3271  0.0000</r>
       <r>  12.4349  0.0000</r>
       <r>  12.8203  0.0000</r>
       <r>  13.8342  0.0000</r>
       <r>  15.2487  0.0000</r>
       <r>  17.0076  0.0000</r>
      </set>
      <set comment="kpoint 42">
       <r>  -1.0797  1.0000</r>
       <r>   0.3749  1.0000</r>
       <r>   3.2355  1.0000</r>
       <r>   4.6434  1.0000</r>
       <r>   5.9830  1.0000</r>
       <r>   7.3636  1.0000</r>
       <r>   9.1057  0.0000</r>
       <r>  10.1112  0.0000</r>
       <r>  10.4522  0.0000</r>
       <r>  11.4789  0.0000</r>
       <r>  11.8128  0.0000</r>
       <r>  13.0985  0.0000</r>
       <r>  13.1167  0.0000</r>
       <r>  14.4455  0.0000</r>
       <r>  14.4825  0.0000</r>
       <r>  18.3546  0.0000</r>
      </set>
      <set comment="kpoint 43">
       <r>  -0.4111  1.0000</r>
       <r>  -0.4111  1.0000</r>
       <r>   3.8838  1.0000</r>
       <r>   3.8838  1.0000</r>
       <r>   6.6156  1.0000</r>
       <r>   6.6156  1.0000</r>
       <r>   9.7324  0.0000</r>
       <r>   9.7324  0.0000</r>
       <r>  10.7396  0.0000</r>
       <r>  10.7396  0.0000</r>
       <r>  12.4039  0.0000</r>
       <r>  12.4039  0.0000</r>
       <r>  13.7345  0.0000</r>
       <r>  13.7345  0.0000</r>
       <r>  16.3926  0.0000</r>
       <r>  16.3926  0.0000</r>
      </set>
      <set comment="kpoint 44">
       <r>  -1.2016  1.0000</r>
       <r>   1.6945  1.0000</r>
       <r>   1.6945  1.0000</r>
       <r>   4.5299  1.0000</r>
       <r>   5.8674  1.0000</r>
       <r>   8.6273  0.0000</r>
       <r>   8.6273  0.0000</r>
       <r>   8.9937  0.0000</r>
       <r>  11.3689  0.0000</r>
       <r>  11.6933  0.0000</r>
       <r>  11.6933  0.0000</r>
       <r>  13.0407  0.0000</r>
       <r>  13.0407  0.0000</r>
       <r>  14.3637  0.0000</r>
       <r>  14.9468  0.0000</r>
       <r>  16.7023  0.0000</r>
      </set>
      <set comment="kpoint 45">
       <r>  -0.6537  1.0000</r>
       <r>   0.7966  1.0000</r>
       <r>   2.2316  1.0000</r>
       <r>   3.6528  1.0000</r>
       <r>   6.3851  1.0000</r>
       <r>   7.7677  0.0000</r>
       <r>   9.1446  0.0000</r>
       <r>   9.5132  0.0000</r>
       <r>  10.5170  0.0000</r>
       <r>  10.8741  0.0000</r>
       <r>  12.2177  0.0000</r>
       <r>  13.5195  0.0000</r>
       <r>  13.5534  0.0000</r>
       <r>  14.7100  0.0000</r>
       <r>  14.8524  0.0000</r>
       <r>  17.9411  0.0000</r>
      </set>
      <set comment="kpoint 46">
       <r>   0.0129  1.0000</r>
       <r>   0.0129  1.0000</r>
       <r>   2.8851  1.0000</r>
       <r>   2.8851  1.0000</r>
       <r>   7.0196  1.0000</r>
       <r>   7.0196  1.0000</r>
       <r>   9.7749  0.0000</r>
       <r>   9.7749  0.0000</r>
       <r>  10.1422  0.0000</r>
       <r>  10.1422  0.0000</r>
       <r>  12.8359  0.0000</r>
       <r>  12.8359  0.0000</r>
       <r>  14.0968  0.0000</r>
       <r>  14.0968  0.0000</r>
       <r>  16.7362  0.0000</r>
       <r>  16.7362  0.0000</r>
      </set>
      <set comment="kpoint 47">
       <r>  -0.1080  1.0000</r>
       <r>   1.3370  1.0000</r>
       <r>   1.3370  1.0000</r>
       <r>   2.7677  1.0000</r>
       <r>   6.9046  1.0000</r>
       <r>   8.2860  0.0000</r>
       <r>   8.2860  0.0000</r>
       <r>   9.6621  0.0000</r>
       <r>  10.0321  0.0000</r>
       <r>  11.3915  0.0000</r>
       <r>  11.3915  0.0000</r>
       <r>  12.7363  0.0000</r>
       <r>  15.3123  0.0000</r>
       <r>  15.3123  0.0000</r>
       <r>  15.9051  0.0000</r>
       <r>  17.7613  0.0000</r>
      </set>
      <set comment="kpoint 48">
       <r>   0.5563  1.0000</r>
       <r>   0.5563  1.0000</r>
       <r>   1.9948  1.0000</r>
       <r>   1.9948  1.0000</r>
       <r>   7.5387  1.0000</r>
       <r>   7.5387  1.0000</r>
       <r>   8.9178  0.0000</r>
       <r>   8.9178  0.0000</r>
       <r>  10.6598  0.0000</r>
       <r>  10.6598  0.0000</r>
       <r>  12.0130  0.0000</r>
       <r>  12.0130  0.0000</r>
       <r>  15.8006  0.0000</r>
       <r>  15.8006  0.0000</r>
       <r>  17.1000  0.0000</r>
       <r>  17.1000  0.0000</r>
      </set>
      <set comment="kpoint 49">
       <r>   1.2175  1.0000</r>
       <r>   1.2175  1.0000</r>
       <r>   1.2175  1.0000</r>
       <r>   1.2175  1.0000</r>
       <r>   8.1718  0.0000</r>
       <r>   8.1718  0.0000</r>
       <r>   8.1718  0.0000</r>
       <r>   8.1718  0.0000</r>
       <r>  11.2848  0.0000</r>
       <r>  11.2848  0.0000</r>
       <r>  11.2848  0.0000</r>
       <r>  11.2848  0.0000</r>
       <r>  17.0744  0.0000</r>
       <r>  17.0744  0.0000</r>
       <r>  17.0744  0.0000</r>
       <r>  17.0744  0.0000</r>
      </set>
      <set comment="kpoint 50">
       <r>  -2.4878  1.0000</r>
       <r>   3.2812  1.0000</r>
       <r>   3.2812  1.0000</r>
       <r>   3.2812  1.0000</r>
       <r>   8.7648  0.0000</r>
       <r>   8.7648  0.0000</r>
       <r>   8.7648  0.0000</r>
       <r>   9.1664  0.0000</r>
       <r>   9.1664  0.0000</r>
       <r>   9.1664  0.0000</r>
       <r>  13.8283  0.0000</r>
       <r>  13.8283  0.0000</r>
       <r>  13.8283  0.0000</r>
       <r>  14.2597  0.0000</r>
       <r>  15.3380  0.0000</r>
       <r>  15.3380  0.0000</r>
      </set>
      <set comment="kpoint 51">
       <r>  -2.1805  1.0000</r>
       <r>   2.1675  1.0000</r>
       <r>   3.5758  1.0000</r>
       <r>   3.5758  1.0000</r>
       <r>   7.7588  0.0000</r>
       <r>   7.7588  0.0000</r>
       <r>   9.1220  0.0000</r>
       <r>   9.3876  0.0000</r>
       <r>   9.3876  0.0000</r>
       <r>  10.7441  0.0000</r>
       <r>  13.2144  0.0000</r>
       <r>  13.3442  0.0000</r>
       <r>  13.3442  0.0000</r>
       <r>  14.0927  0.0000</r>
       <r>  15.6296  0.0000</r>
       <r>  16.4285  0.0000</r>
      </set>
      <set comment="kpoint 52">
       <r>  -1.7514  1.0000</r>
       <r>   1.1555  1.0000</r>
       <r>   3.9870  1.0000</r>
       <r>   3.9870  1.0000</r>
       <r>   6.7908  1.0000</r>
       <r>   6.7908  1.0000</r>
       <r>   9.5308  0.0000</r>
       <r>   9.7791  0.0000</r>
       <r>   9.7791  0.0000</r>
       <r>  12.2635  0.0000</r>
       <r>  12.4930  0.0000</r>
       <r>  12.4992  0.0000</r>
       <r>  12.4992  0.0000</r>
       <r>  14.4631  0.0000</r>
       <r>  16.0331  0.0000</r>
       <r>  17.0006  0.0000</r>
      </set>
      <set comment="kpoint 53">
       <r>  -1.2016  1.0000</r>
       <r>   0.2541  1.0000</r>
       <r>   4.5119  1.0000</r>
       <r>   4.5119  1.0000</r>
       <r>   5.9276  1.0000</r>
       <r>   5.9276  1.0000</r>
       <r>  10.0485  0.0000</r>
       <r>  10.2753  0.0000</r>
       <r>  10.2753  0.0000</r>
       <r>  11.4164  0.0000</r>
       <r>  11.7024  0.0000</r>
       <r>  11.7024  0.0000</r>
       <r>  14.3412  0.0000</r>
       <r>  14.9394  0.0000</r>
       <r>  16.2092  0.0000</r>
       <r>  16.5426  0.0000</r>
      </set>
      <set comment="kpoint 54">
       <r>  -0.5324  1.0000</r>
       <r>  -0.5324  1.0000</r>
       <r>   5.0604  1.0000</r>
       <r>   5.0604  1.0000</r>
       <r>   5.2660  1.0000</r>
       <r>   5.2660  1.0000</r>
       <r>  10.6773  0.0000</r>
       <r>  10.6773  0.0000</r>
       <r>  10.7086  0.0000</r>
       <r>  10.7086  0.0000</r>
       <r>  11.1662  0.0000</r>
       <r>  11.1662  0.0000</r>
       <r>  15.5216  0.0000</r>
       <r>  15.5216  0.0000</r>
       <r>  16.2701  0.0000</r>
       <r>  16.2701  0.0000</r>
      </set>
      <set comment="kpoint 55">
       <r>  -1.8739  1.0000</r>
       <r>   2.4650  1.0000</r>
       <r>   2.4650  1.0000</r>
       <r>   3.8695  1.0000</r>
       <r>   6.6869  1.0000</r>
       <r>   8.0553  0.0000</r>
       <r>   8.0553  0.0000</r>
       <r>   9.6716  0.0000</r>
       <r>  11.0216  0.0000</r>
       <r>  11.0216  0.0000</r>
       <r>  12.1628  0.0000</r>
       <r>  13.6192  0.0000</r>
       <r>  13.6192  0.0000</r>
       <r>  14.3605  0.0000</r>
       <r>  16.0157  0.0000</r>
       <r>  16.7084  0.0000</r>
      </set>
      <set comment="kpoint 56">
       <r>  -1.4457  1.0000</r>
       <r>   1.4552  1.0000</r>
       <r>   2.8804  1.0000</r>
       <r>   4.2779  1.0000</r>
       <r>   5.7100  1.0000</r>
       <r>   7.0826  1.0000</r>
       <r>   8.4614  0.0000</r>
       <r>  10.0711  0.0000</r>
       <r>  11.2065  0.0000</r>
       <r>  11.4032  0.0000</r>
       <r>  12.7645  0.0000</r>
       <r>  12.7886  0.0000</r>
       <r>  13.9984  0.0000</r>
       <r>  14.0066  0.0000</r>
       <r>  16.5520  0.0000</r>
       <r>  17.0954  0.0000</r>
      </set>
      <set comment="kpoint 57">
       <r>  -0.8970  1.0000</r>
       <r>   0.5557  1.0000</r>
       <r>   3.4124  1.0000</r>
       <r>   4.7200  1.0000</r>
       <r>   4.9215  1.0000</r>
       <r>   6.2164  1.0000</r>
       <r>   8.9804  0.0000</r>
       <r>  10.3548  0.0000</r>
       <r>  10.5805  0.0000</r>
       <r>  11.7357  0.0000</r>
       <r>  12.1508  0.0000</r>
       <r>  13.2676  0.0000</r>
       <r>  14.4148  0.0000</r>
       <r>  14.6873  0.0000</r>
       <r>  15.7657  0.0000</r>
       <r>  17.5821  0.0000</r>
      </set>
      <set comment="kpoint 58">
       <r>  -0.2292  1.0000</r>
       <r>  -0.2292  1.0000</r>
       <r>   4.0580  1.0000</r>
       <r>   4.0580  1.0000</r>
       <r>   5.4635  1.0000</r>
       <r>   5.4635  1.0000</r>
       <r>   9.6120  0.0000</r>
       <r>   9.6120  0.0000</r>
       <r>  11.1882  0.0000</r>
       <r>  11.1882  0.0000</r>
       <r>  12.5834  0.0000</r>
       <r>  12.5834  0.0000</r>
       <r>  15.0673  0.0000</r>
       <r>  15.0673  0.0000</r>
       <r>  16.5467  0.0000</r>
       <r>  16.5467  0.0000</r>
      </set>
      <set comment="kpoint 59">
       <r>  -1.0187  1.0000</r>
       <r>   1.8738  1.0000</r>
       <r>   1.8738  1.0000</r>
       <r>   4.6060  1.0000</r>
       <r>   4.8051  1.0000</r>
       <r>   7.4888  1.0000</r>
       <r>   7.4888  1.0000</r>
       <r>  10.2454  0.0000</r>
       <r>  10.4733  0.0000</r>
       <r>  12.9864  0.0000</r>
       <r>  12.9864  0.0000</r>
       <r>  13.3357  0.0000</r>
       <r>  13.3357  0.0000</r>
       <r>  15.1062  0.0000</r>
       <r>  15.7334  0.0000</r>
       <r>  16.8685  0.0000</r>
      </set>
      <set comment="kpoint 60">
       <r>  -0.4716  1.0000</r>
       <r>   0.9770  1.0000</r>
       <r>   2.4102  1.0000</r>
       <r>   3.8277  1.0000</r>
       <r>   5.2301  1.0000</r>
       <r>   6.6230  1.0000</r>
       <r>   8.0094  0.0000</r>
       <r>   9.3897  0.0000</r>
       <r>  10.9851  0.0000</r>
       <r>  12.3135  0.0000</r>
       <r>  13.6291  0.0000</r>
       <r>  13.6934  0.0000</r>
       <r>  14.8730  0.0000</r>
       <r>  14.9460  0.0000</r>
       <r>  15.0180  0.0000</r>
       <r>  18.0985  0.0000</r>
      </set>
      <set comment="kpoint 61">
       <r>   0.1943  1.0000</r>
       <r>   0.1943  1.0000</r>
       <r>   3.0627  1.0000</r>
       <r>   3.0627  1.0000</r>
       <r>   5.8687  1.0000</r>
       <r>   5.8687  1.0000</r>
       <r>   8.6436  0.0000</r>
       <r>   8.6436  0.0000</r>
       <r>  11.6025  0.0000</r>
       <r>  11.6025  0.0000</r>
       <r>  14.2416  0.0000</r>
       <r>  14.2416  0.0000</r>
       <r>  14.2633  0.0000</r>
       <r>  14.2633  0.0000</r>
       <r>  16.8933  0.0000</r>
       <r>  16.8933  0.0000</r>
      </set>
      <set comment="kpoint 62">
       <r>   0.0735  1.0000</r>
       <r>   1.5168  1.0000</r>
       <r>   1.5168  1.0000</r>
       <r>   2.9455  1.0000</r>
       <r>   5.7525  1.0000</r>
       <r>   7.1452  1.0000</r>
       <r>   7.1452  1.0000</r>
       <r>   8.5305  0.0000</r>
       <r>  11.4970  0.0000</r>
       <r>  12.8311  0.0000</r>
       <r>  12.8311  0.0000</r>
       <r>  14.1537  0.0000</r>
       <r>  15.4750  0.0000</r>
       <r>  15.4750  0.0000</r>
       <r>  16.0650  0.0000</r>
       <r>  17.9160  0.0000</r>
      </set>
      <set comment="kpoint 63">
       <r>   0.7370  1.0000</r>
       <r>   0.7370  1.0000</r>
       <r>   2.1737  1.0000</r>
       <r>   2.1737  1.0000</r>
       <r>   6.3920  1.0000</r>
       <r>   6.3920  1.0000</r>
       <r>   7.7816  0.0000</r>
       <r>   7.7816  0.0000</r>
       <r>  12.1146  0.0000</r>
       <r>  12.1146  0.0000</r>
       <r>  13.4441  0.0000</r>
       <r>  13.4441  0.0000</r>
       <r>  15.9619  0.0000</r>
       <r>  15.9619  0.0000</r>
       <r>  17.2584  0.0000</r>
       <r>  17.2584  0.0000</r>
      </set>
      <set comment="kpoint 64">
       <r>   1.3975  1.0000</r>
       <r>   1.3975  1.0000</r>
       <r>   1.3975  1.0000</r>
       <r>   1.3975  1.0000</r>
       <r>   7.0302  1.0000</r>
       <r>   7.0302  1.0000</r>
       <r>   7.0302  1.0000</r>
       <r>   7.0302  1.0000</r>
       <r>  12.7301  0.0000</r>
       <r>  12.7301  0.0000</r>
       <r>  12.7301  0.0000</r>
       <r>  12.7301  0.0000</r>
       <r>  17.2348  0.0000</r>
       <r>  17.2348  0.0000</r>
       <r>  17.2348  0.0000</r>
       <r>  17.2348  0.0000</r>
      </set>
      <set comment="kpoint 65">
       <r>  -1.5679  1.0000</r>
       <r>   2.7618  1.0000</r>
       <r>   2.7618  1.0000</r>
       <r>   2.7618  1.0000</r>
       <r>   6.9791  1.0000</r>
       <r>   6.9791  1.0000</r>
       <r>   6.9791  1.0000</r>
       <r>  11.1062  0.0000</r>
       <r>  11.3084  0.0000</r>
       <r>  11.3084  0.0000</r>
       <r>  11.3084  0.0000</r>
       <r>  14.6256  0.0000</r>
       <r>  14.6256  0.0000</r>
       <r>  14.6256  0.0000</r>
       <r>  16.3007  0.0000</r>
       <r>  16.3007  0.0000</r>
      </set>
      <set comment="kpoint 66">
       <r>  -1.1406  1.0000</r>
       <r>   1.7544  1.0000</r>
       <r>   3.1761  1.0000</r>
       <r>   3.1761  1.0000</r>
       <r>   5.9996  1.0000</r>
       <r>   5.9996  1.0000</r>
       <r>   7.3859  1.0000</r>
       <r>  10.1449  0.0000</r>
       <r>  11.7022  0.0000</r>
       <r>  11.7022  0.0000</r>
       <r>  13.0533  0.0000</r>
       <r>  14.2720  0.0000</r>
       <r>  14.2720  0.0000</r>
       <r>  14.9968  0.0000</r>
       <r>  16.6922  0.0000</r>
       <r>  17.4448  0.0000</r>
      </set>
      <set comment="kpoint 67">
       <r>  -0.5930  1.0000</r>
       <r>   0.8568  1.0000</r>
       <r>   3.7055  1.0000</r>
       <r>   3.7055  1.0000</r>
       <r>   5.1289  1.0000</r>
       <r>   5.1289  1.0000</r>
       <r>   7.9072  0.0000</r>
       <r>   9.2887  0.0000</r>
       <r>  12.1955  0.0000</r>
       <r>  12.1955  0.0000</r>
       <r>  13.5531  0.0000</r>
       <r>  13.5531  0.0000</r>
       <r>  14.8885  0.0000</r>
       <r>  15.4743  0.0000</r>
       <r>  16.7470  0.0000</r>
       <r>  17.1792  0.0000</r>
      </set>
      <set comment="kpoint 68">
       <r>   0.0734  1.0000</r>
       <r>   0.0734  1.0000</r>
       <r>   4.2654  1.0000</r>
       <r>   4.2654  1.0000</r>
       <r>   4.4549  1.0000</r>
       <r>   4.4549  1.0000</r>
       <r>   8.5420  0.0000</r>
       <r>   8.5420  0.0000</r>
       <r>  12.6440  0.0000</r>
       <r>  12.6440  0.0000</r>
       <r>  13.0161  0.0000</r>
       <r>  13.0161  0.0000</r>
       <r>  16.0579  0.0000</r>
       <r>  16.0579  0.0000</r>
       <r>  16.7944  0.0000</r>
       <r>  16.7944  0.0000</r>
      </set>
      <set comment="kpoint 69">
       <r>  -0.7145  1.0000</r>
       <r>   2.1721  1.0000</r>
       <r>   2.1721  1.0000</r>
       <r>   3.5878  1.0000</r>
       <r>   5.0155  1.0000</r>
       <r>   6.4072  1.0000</r>
       <r>   6.4072  1.0000</r>
       <r>   9.1789  0.0000</r>
       <r>  12.1002  0.0000</r>
       <r>  13.4350  0.0000</r>
       <r>  13.4350  0.0000</r>
       <r>  14.6565  0.0000</r>
       <r>  14.6565  0.0000</r>
       <r>  15.3720  0.0000</r>
       <r>  17.1375  0.0000</r>
       <r>  17.1406  0.0000</r>
      </set>
      <set comment="kpoint 70">
       <r>  -0.1685  1.0000</r>
       <r>   1.2772  1.0000</r>
       <r>   2.7073  1.0000</r>
       <r>   4.0370  1.0000</r>
       <r>   4.2182  1.0000</r>
       <r>   5.5358  1.0000</r>
       <r>   6.9305  1.0000</r>
       <r>   8.3185  0.0000</r>
       <r>  12.6023  0.0000</r>
       <r>  13.7740  0.0000</r>
       <r>  14.0833  0.0000</r>
       <r>  15.0772  0.0000</r>
       <r>  15.1443  0.0000</r>
       <r>  15.3218  0.0000</r>
       <r>  16.3993  0.0000</r>
       <r>  18.2725  0.0000</r>
      </set>
      <set comment="kpoint 71">
       <r>   0.4961  1.0000</r>
       <r>   0.4961  1.0000</r>
       <r>   3.3570  1.0000</r>
       <r>   3.3570  1.0000</r>
       <r>   4.7777  1.0000</r>
       <r>   4.7777  1.0000</r>
       <r>   7.5682  1.0000</r>
       <r>   7.5682  1.0000</r>
       <r>  13.2000  0.0000</r>
       <r>  13.2000  0.0000</r>
       <r>  14.5426  0.0000</r>
       <r>  14.5426  0.0000</r>
       <r>  15.7143  0.0000</r>
       <r>  15.7143  0.0000</r>
       <r>  17.1497  0.0000</r>
       <r>  17.1497  0.0000</r>
      </set>
      <set comment="kpoint 72">
       <r>   0.3756  1.0000</r>
       <r>   1.8159  1.0000</r>
       <r>   1.8159  1.0000</r>
       <r>   3.2403  1.0000</r>
       <r>   4.6603  1.0000</r>
       <r>   6.0608  1.0000</r>
       <r>   6.0608  1.0000</r>
       <r>   7.4545  1.0000</r>
       <r>  13.1063  0.0000</r>
       <r>  14.3950  0.0000</r>
       <r>  14.3950  0.0000</r>
       <r>  15.6805  0.0000</r>
       <r>  15.7452  0.0000</r>
       <r>  15.7452  0.0000</r>
       <r>  16.3316  0.0000</r>
       <r>  18.1642  0.0000</r>
      </set>
      <set comment="kpoint 73">
       <r>   1.0377  1.0000</r>
       <r>   1.0377  1.0000</r>
       <r>   2.4714  1.0000</r>
       <r>   2.4714  1.0000</r>
       <r>   5.3028  1.0000</r>
       <r>   5.3028  1.0000</r>
       <r>   6.7010  1.0000</r>
       <r>   6.7010  1.0000</r>
       <r>  13.7088  0.0000</r>
       <r>  13.7088  0.0000</r>
       <r>  14.9967  0.0000</r>
       <r>  14.9967  0.0000</r>
       <r>  16.2295  0.0000</r>
       <r>  16.2295  0.0000</r>
       <r>  17.5194  0.0000</r>
       <r>  17.5194  0.0000</r>
      </set>
      <set comment="kpoint 74">
       <r>   1.6969  1.0000</r>
       <r>   1.6969  1.0000</r>
       <r>   1.6969  1.0000</r>
       <r>   1.6969  1.0000</r>
       <r>   5.9449  1.0000</r>
       <r>   5.9449  1.0000</r>
       <r>   5.9449  1.0000</r>
       <r>   5.9449  1.0000</r>
       <r>  14.3104  0.0000</r>
       <r>  14.3104  0.0000</r>
       <r>  14.3104  0.0000</r>
       <r>  14.3104  0.0000</r>
       <r>  17.5020  0.0000</r>
       <r>  17.5020  0.0000</r>
       <r>  17.5020  0.0000</r>
       <r>  17.5020  0.0000</r>
      </set>
      <set comment="kpoint 75">
       <r>  -0.2896  1.0000</r>
       <r>   2.5886  1.0000</r>
       <r>   2.5886  1.0000</r>
       <r>   2.5886  1.0000</r>
       <r>   5.4229  1.0000</r>
       <r>   5.4229  1.0000</r>
       <r>   5.4229  1.0000</r>
       <r>   8.2081  0.0000</r>
       <r>  13.8298  0.0000</r>
       <r>  13.8298  0.0000</r>
       <r>  13.8298  0.0000</r>
       <r>  15.7442  0.0000</r>
       <r>  15.7442  0.0000</r>
       <r>  15.7442  0.0000</r>
       <r>  17.5084  0.0000</r>
       <r>  17.5084  0.0000</r>
      </set>
      <set comment="kpoint 76">
       <r>   0.2549  1.0000</r>
       <r>   1.6965  1.0000</r>
       <r>   3.1210  1.0000</r>
       <r>   3.1210  1.0000</r>
       <r>   4.5476  1.0000</r>
       <r>   4.5476  1.0000</r>
       <r>   5.9485  1.0000</r>
       <r>   7.3434  1.0000</r>
       <r>  14.3148  0.0000</r>
       <r>  14.3148  0.0000</r>
       <r>  15.5238  0.0000</r>
       <r>  15.5238  0.0000</r>
       <r>  15.6388  0.0000</r>
       <r>  16.2231  0.0000</r>
       <r>  17.4991  0.0000</r>
       <r>  17.9493  0.0000</r>
      </set>
      <set comment="kpoint 77">
       <r>   0.9176  1.0000</r>
       <r>   0.9176  1.0000</r>
       <r>   3.6940  1.0000</r>
       <r>   3.6940  1.0000</r>
       <r>   3.8601  1.0000</r>
       <r>   3.8601  1.0000</r>
       <r>   6.5893  1.0000</r>
       <r>   6.5893  1.0000</r>
       <r>  14.7803  0.0000</r>
       <r>  14.7803  0.0000</r>
       <r>  15.0282  0.0000</r>
       <r>  15.0282  0.0000</r>
       <r>  16.8083  0.0000</r>
       <r>  16.8083  0.0000</r>
       <r>  17.4923  0.0000</r>
       <r>  17.4923  0.0000</r>
      </set>
      <set comment="kpoint 78">
       <r>   0.7975  1.0000</r>
       <r>   2.2336  1.0000</r>
       <r>   2.2336  1.0000</r>
       <r>   3.5795  1.0000</r>
       <r>   3.7399  1.0000</r>
       <r>   5.0739  1.0000</r>
       <r>   5.0739  1.0000</r>
       <r>   6.4748  1.0000</r>
       <r>  14.8080  0.0000</r>
       <r>  15.9554  0.0000</r>
       <r>  15.9554  0.0000</r>
       <r>  16.1430  0.0000</r>
       <r>  16.1430  0.0000</r>
       <r>  16.7049  0.0000</r>
       <r>  17.2023  0.0000</r>
       <r>  18.4842  0.0000</r>
      </set>
      <set comment="kpoint 79">
       <r>   1.4577  1.0000</r>
       <r>   1.4577  1.0000</r>
       <r>   2.8862  1.0000</r>
       <r>   2.8862  1.0000</r>
       <r>   4.3126  1.0000</r>
       <r>   4.3126  1.0000</r>
       <r>   5.7174  1.0000</r>
       <r>   5.7174  1.0000</r>
       <r>  15.3811  0.0000</r>
       <r>  15.3811  0.0000</r>
       <r>  16.5685  0.0000</r>
       <r>  16.5685  0.0000</r>
       <r>  16.6009  0.0000</r>
       <r>  16.6009  0.0000</r>
       <r>  17.8745  0.0000</r>
       <r>  17.8745  0.0000</r>
      </set>
      <set comment="kpoint 80">
       <r>   2.1149  1.0000</r>
       <r>   2.1149  1.0000</r>
       <r>   2.1149  1.0000</r>
       <r>   2.1149  1.0000</r>
       <r>   4.9572  1.0000</r>
       <r>   4.9572  1.0000</r>
       <r>   4.9572  1.0000</r>
       <r>   4.9572  1.0000</r>
       <r>  15.9582  0.0000</r>
       <r>  15.9582  0.0000</r>
       <r>  15.9582  0.0000</r>
       <r>  15.9582  0.0000</r>
       <r>  17.8758  0.0000</r>
       <r>  17.8758  0.0000</r>
       <r>  17.8758  0.0000</r>
       <r>  17.8758  0.0000</r>
      </set>
      <set comment="kpoint 81">
       <r>   1.3381  1.0000</r>
       <r>   2.7679  1.0000</r>
       <r>   2.7679  1.0000</r>
       <r>   2.7679  1.0000</r>
       <r>   4.1960  1.0000</r>
       <r>   4.1960  1.0000</r>
       <r>   4.1960  1.0000</r>
       <r>   5.6022  1.0000</r>
       <r>  16.5634  0.0000</r>
       <r>  16.5634  0.0000</r>
       <r>  16.5634  0.0000</r>
       <r>  17.1850  0.0000</r>
       <r>  17.1850  0.0000</r>
       <r>  17.1850  0.0000</r>
       <r>  18.4598  0.0000</r>
       <r>  18.4598  0.0000</r>
      </set>
      <set comment="kpoint 82">
       <r>   1.9959  1.0000</r>
       <r>   1.9959  1.0000</r>
       <r>   3.3505  1.0000</r>
       <r>   3.3505  1.0000</r>
       <r>   3.4986  1.0000</r>
       <r>   3.4986  1.0000</r>
       <r>   4.8413  1.0000</r>
       <r>   4.8413  1.0000</r>
       <r>  17.0216  0.0000</r>
       <r>  17.0216  0.0000</r>
       <r>  17.1022  0.0000</r>
       <r>  17.1022  0.0000</r>
       <r>  17.7713  0.0000</r>
       <r>  17.7713  0.0000</r>
       <r>  18.2844  0.0000</r>
       <r>  18.2844  0.0000</r>
      </set>
      <set comment="kpoint 83">
       <r>   2.6498  1.0000</r>
       <r>   2.6498  1.0000</r>
       <r>   2.6498  1.0000</r>
       <r>   2.6498  1.0000</r>
       <r>   4.0784  1.0000</r>
       <r>   4.0784  1.0000</r>
       <r>   4.0784  1.0000</r>
       <r>   4.0784  1.0000</r>
       <r>  17.5856  0.0000</r>
       <r>  17.5856  0.0000</r>
       <r>  17.5856  0.0000</r>
       <r>  17.5856  0.0000</r>
       <r>  18.3542  0.0000</r>
       <r>  18.3542  0.0000</r>
       <r>  18.3542  0.0000</r>
       <r>  18.3542  0.0000</r>
      </set>
      <set comment="kpoint 84">
       <r>   3.2359  1.0000</r>
       <r>   3.2359  1.0000</r>
       <r>   3.2359  1.0000</r>
       <r>   3.2359  1.0000</r>
       <r>   3.3774  1.0000</r>
       <r>   3.3774  1.0000</r>
       <r>   3.3774  1.0000</r>
       <r>   3.3774  1.0000</r>
       <r>  18.8473  0.0000</r>
       <r>  18.8473  0.0000</r>
       <r>  18.8473  0.0000</r>
       <r>  18.8473  0.0000</r>
       <r>  18.8473  0.0000</r>
       <r>  18.8473  0.0000</r>
       <r>  18.8473  0.0000</r>
       <r>  18.8474  0.0000</r>
      </set>
     </set>
    </set>
   </array>
  </eigenvalues>
 </calculation>
 <structure name="finalpos" >
  <crystal>
   <varray name="basis" >
    <v>       4.07767943      0.00000000      0.00000000</v>
    <v>       0.00000000      4.07767943      0.00000000</v>
    <v>       0.00000000      0.00000000      4.07767943</v>
   </varray>
   <i name="volume">     67.80149066</i>
   <varray name="rec_basis" >
    <v>       0.24523752      0.00000000      0.00000000</v>
    <v>       0.00000000      0.24523752      0.00000000</v>
    <v>       0.00000000      0.00000000      0.24523752</v>
   </varray>
  </crystal>
  <varray name="positions" >
   <v>       0.50000000      0.50000000      0.00000000</v>
   <v>       0.50000000      0.00000000      0.50000000</v>
   <v>       0.00000000      0.50000000      0.50000000</v>
   <v>       0.00000000      0.00000000      0.00000000</v>
  </varray>
 </structure>
</modeling>
