32   
1    

1    
  0.0100000000000000   0.0000000000000000   0.0000000000000000
  -0.0282004600   -0.0000000000    0.0000000000
   0.0013817800   -0.0000000000    0.0000000000
  -0.0002796100   -0.0000000000    0.0000000000
   0.0003573000   -0.0000000000    0.0000000000
  -0.0002796100    0.0000000000   -0.0000000000
   0.0003573000    0.0000000000    0.0000000000
   0.0002193600    0.0000000000    0.0000000000
  -0.0003025900    0.0000000000   -0.0000000000
  -0.0011752000    0.0000195000   -0.0000195000
  -0.0007310900    0.0000057200   -0.0000057200
  -0.0011752000   -0.0000195000   -0.0000195000
  -0.0007310900   -0.0000057200   -0.0000057200
  -0.0011752000    0.0000195000    0.0000195000
  -0.0007310900    0.0000057200    0.0000057200
  -0.0011752000   -0.0000195000    0.0000195000
  -0.0007310900   -0.0000057200    0.0000057200
   0.0044220400   -0.0000000000   -0.0045111400
   0.0045111600   -0.0000000000    0.0046386100
  -0.0001664800   -0.0000000000    0.0005883700
  -0.0001737900   -0.0000000000   -0.0006025500
   0.0044220400   -0.0000000000    0.0045111400
   0.0045111600    0.0000000000   -0.0046386100
  -0.0001664800    0.0000000000   -0.0005883700
  -0.0001737900    0.0000000000    0.0006025500
   0.0044220400    0.0045111400    0.0000000000
   0.0045111600   -0.0046386100   -0.0000000000
   0.0044220400   -0.0045111400   -0.0000000000
   0.0045111600    0.0046386100   -0.0000000000
  -0.0001664800   -0.0005883700    0.0000000000
  -0.0001737900    0.0006025500    0.0000000000
  -0.0001664800    0.0005883700    0.0000000000
  -0.0001737900   -0.0006025500   -0.0000000000
