32   
1    

1    
  0.0100000000000000   0.0000000000000000   0.0000000000000000
  -0.0953157400    0.0000000000    0.0000000000
   0.0011786900    0.0000000000   -0.0000000000
  -0.0003952200   -0.0000000000    0.0000000000
   0.0003116100    0.0000000000    0.0000000000
  -0.0003952200   -0.0000000000    0.0000000000
   0.0003116100   -0.0000000000   -0.0000000000
  -0.0000900200    0.0000000000    0.0000000000
  -0.0001090000    0.0000000000   -0.0000000000
   0.0121075800    0.0142016500    0.0000000000
   0.0117711800   -0.0137083800   -0.0000000000
   0.0121075800   -0.0142016500    0.0000000000
   0.0117711800    0.0137083800    0.0000000000
   0.0001930700    0.0001894200    0.0000000000
   0.0001932600   -0.0001913900   -0.0000000000
   0.0001930700   -0.0001894200   -0.0000000000
   0.0001932600    0.0001913900    0.0000000000
   0.0121075800    0.0000000000    0.0142016500
   0.0117711800    0.0000000000   -0.0137083800
   0.0001930700    0.0000000000    0.0001894200
   0.0001932600   -0.0000000000   -0.0001913900
   0.0121075800   -0.0000000000   -0.0142016500
   0.0117711800   -0.0000000000    0.0137083800
   0.0001930700    0.0000000000   -0.0001894200
   0.0001932600   -0.0000000000    0.0001913900
  -0.0013635500   -0.0000310600   -0.0000310600
   0.0007242800    0.0000019700    0.0000019700
  -0.0013635500    0.0000310600   -0.0000310600
   0.0007242800   -0.0000019700    0.0000019700
  -0.0013635500   -0.0000310600    0.0000310600
   0.0007242800    0.0000019700   -0.0000019700
  -0.0013635500    0.0000310600    0.0000310600
   0.0007242800   -0.0000019700   -0.0000019700
