mesh: [    48,    48,    48 ]
nqpoint: 2600   
reciprocal_lattice:
- [   0.28350109,   0.00000000,   0.00000000 ] # a*
- [   0.00000000,   0.28350109,   0.00000000 ] # b*
- [   0.00000000,   0.00000000,   0.28350109 ] # c*
natom:   4      
lattice:
- [     3.527323337381060,     0.000000000000000,     0.000000000000000 ] # a
- [     0.000000000000000,     3.527323337381060,     0.000000000000000 ] # b
- [     0.000000000000000,     0.000000000000000,     3.527323337381060 ] # c
points:
- symbol: Cu # 1
  coordinates: [  0.000000000000000,  0.000000000000000,  0.000000000000000 ]
  mass: 63.546000
- symbol: Cu # 2
  coordinates: [  0.500000000000000,  0.500000000000000,  0.000000000000000 ]
  mass: 63.546000
- symbol: Cu # 3
  coordinates: [  0.500000000000000,  0.000000000000000,  0.500000000000000 ]
  mass: 63.546000
- symbol: Cu # 4
  coordinates: [  0.000000000000000,  0.500000000000000,  0.500000000000000 ]
  mass: 63.546000
phonon:
- q-position: [    0.0104167,    0.0104167,    0.0104167 ]
  weight: 8    
  band:
  - # 1
    frequency:     0.1421287506
  - # 2
    frequency:     0.1421287506
  - # 3
    frequency:     0.3001469135
  - # 4
    frequency:     5.9446729382
  - # 5
    frequency:     5.9446729382
  - # 6
    frequency:     5.9446729382
  - # 7
    frequency:     5.9485881017
  - # 8
    frequency:     5.9485881017
  - # 9
    frequency:     5.9485881017
  - # 10
    frequency:     8.6383195401
  - # 11
    frequency:     8.6383195401
  - # 12
    frequency:     8.6383195401

- q-position: [    0.0312500,    0.0104167,    0.0104167 ]
  weight: 24   
  band:
  - # 1
    frequency:     0.2854158147
  - # 2
    frequency:     0.3147043463
  - # 3
    frequency:     0.5453842806
  - # 4
    frequency:     5.9385800896
  - # 5
    frequency:     5.9424797746
  - # 6
    frequency:     5.9426654063
  - # 7
    frequency:     5.9426654063
  - # 8
    frequency:     5.9563991972
  - # 9
    frequency:     5.9563991972
  - # 10
    frequency:     8.6308299147
  - # 11
    frequency:     8.6330583383
  - # 12
    frequency:     8.6330583383

- q-position: [    0.0520833,    0.0104167,    0.0104167 ]
  weight: 24   
  band:
  - # 1
    frequency:     0.4816955841
  - # 2
    frequency:     0.5062967892
  - # 3
    frequency:     0.8261554014
  - # 4
    frequency:     5.9263982756
  - # 5
    frequency:     5.9302670775
  - # 6
    frequency:     5.9408529842
  - # 7
    frequency:     5.9408529842
  - # 8
    frequency:     5.9697886887
  - # 9
    frequency:     5.9697886887
  - # 10
    frequency:     8.6158408018
  - # 11
    frequency:     8.6225540180
  - # 12
    frequency:     8.6225540180

- q-position: [    0.0729167,    0.0104167,    0.0104167 ]
  weight: 24   
  band:
  - # 1
    frequency:     0.6814858661
  - # 2
    frequency:     0.7009550636
  - # 3
    frequency:     1.1178980050
  - # 4
    frequency:     5.9081352850
  - # 5
    frequency:     5.9119579454
  - # 6
    frequency:     5.9386957589
  - # 7
    frequency:     5.9386957589
  - # 8
    frequency:     5.9892368211
  - # 9
    frequency:     5.9892368211
  - # 10
    frequency:     8.5933326924
  - # 11
    frequency:     8.6068427033
  - # 12
    frequency:     8.6068427033

- q-position: [    0.0937500,    0.0104167,    0.0104167 ]
  weight: 24   
  band:
  - # 1
    frequency:     0.8803489000
  - # 2
    frequency:     0.8960559036
  - # 3
    frequency:     1.4134644023
  - # 4
    frequency:     5.8838028565
  - # 5
    frequency:     5.8875643320
  - # 6
    frequency:     5.9360465747
  - # 7
    frequency:     5.9360465747
  - # 8
    frequency:     6.0148023440
  - # 9
    frequency:     6.0148023440
  - # 10
    frequency:     8.5632768587
  - # 11
    frequency:     8.5859784772
  - # 12
    frequency:     8.5859784772

- q-position: [    0.1145833,    0.0104167,    0.0104167 ]
  weight: 24   
  band:
  - # 1
    frequency:     1.0777085609
  - # 2
    frequency:     1.0906780638
  - # 3
    frequency:     1.7097564055
  - # 4
    frequency:     5.8534167453
  - # 5
    frequency:     5.8571022711
  - # 6
    frequency:     5.9328876536
  - # 7
    frequency:     5.9328876536
  - # 8
    frequency:     6.0463871400
  - # 9
    frequency:     6.0463871400
  - # 10
    frequency:     8.5256359873
  - # 11
    frequency:     8.5600332568
  - # 12
    frequency:     8.5600332568

- q-position: [    0.1354167,    0.0104167,    0.0104167 ]
  weight: 24   
  band:
  - # 1
    frequency:     1.2734076494
  - # 2
    frequency:     1.2843197076
  - # 3
    frequency:     2.0050988899
  - # 4
    frequency:     5.8169968090
  - # 5
    frequency:     5.8205919559
  - # 6
    frequency:     5.9292478196
  - # 7
    frequency:     5.9292478196
  - # 8
    frequency:     6.0838205647
  - # 9
    frequency:     6.0838205647
  - # 10
    frequency:     8.4803650093
  - # 11
    frequency:     8.5290966307
  - # 12
    frequency:     8.5290966307

- q-position: [    0.1562500,    0.0104167,    0.0104167 ]
  weight: 24   
  band:
  - # 1
    frequency:     1.4673134709
  - # 2
    frequency:     1.4766240660
  - # 3
    frequency:     2.2984126098
  - # 4
    frequency:     5.7745671141
  - # 5
    frequency:     5.7780578380
  - # 6
    frequency:     5.9251776126
  - # 7
    frequency:     5.9251776126
  - # 8
    frequency:     6.1268861336
  - # 9
    frequency:     6.1268861336
  - # 10
    frequency:     8.4274121145
  - # 11
    frequency:     8.4932756571
  - # 12
    frequency:     8.4932756571

- q-position: [    0.1770833,    0.0104167,    0.0104167 ]
  weight: 24   
  band:
  - # 1
    frequency:     1.6592724571
  - # 2
    frequency:     1.6672968368
  - # 3
    frequency:     2.5889033882
  - # 4
    frequency:     5.7261560602
  - # 5
    frequency:     5.7295287416
  - # 6
    frequency:     5.9207404410
  - # 7
    frequency:     5.9207404410
  - # 8
    frequency:     6.1753323252
  - # 9
    frequency:     6.1753323252
  - # 10
    frequency:     8.3667199345
  - # 11
    frequency:     8.4526946259
  - # 12
    frequency:     8.4526946259

- q-position: [    0.1979167,    0.0104167,    0.0104167 ]
  weight: 24   
  band:
  - # 1
    frequency:     1.8491124427
  - # 2
    frequency:     1.8560755893
  - # 3
    frequency:     2.8759303945
  - # 4
    frequency:     5.6717965194
  - # 5
    frequency:     5.6750379941
  - # 6
    frequency:     5.9160085529
  - # 7
    frequency:     5.9160085529
  - # 8
    frequency:     6.2288786356
  - # 9
    frequency:     6.2288786356
  - # 10
    frequency:     8.2982268788
  - # 11
    frequency:     8.4074947859
  - # 12
    frequency:     8.4074947859

- q-position: [    0.2187500,    0.0104167,    0.0104167 ]
  weight: 24   
  band:
  - # 1
    frequency:     2.0366496257
  - # 2
    frequency:     2.0427167694
  - # 3
    frequency:     3.1589449324
  - # 4
    frequency:     5.6115259919
  - # 5
    frequency:     5.6146235697
  - # 6
    frequency:     5.9110605996
  - # 7
    frequency:     5.9110605996
  - # 8
    frequency:     6.2872200322
  - # 9
    frequency:     6.2872200322
  - # 10
    frequency:     8.2218686038
  - # 11
    frequency:     8.3578340396
  - # 12
    frequency:     8.3578340396

- q-position: [    0.2395833,    0.0104167,    0.0104167 ]
  weight: 24   
  band:
  - # 1
    frequency:     2.2216940969
  - # 2
    frequency:     2.2269896468
  - # 3
    frequency:     3.4374599096
  - # 4
    frequency:     5.5453867723
  - # 5
    frequency:     5.5483282447
  - # 6
    frequency:     5.9059797595
  - # 7
    frequency:     5.9059797595
  - # 8
    frequency:     6.3500307698
  - # 9
    frequency:     6.3500307698
  - # 10
    frequency:     8.1375795950
  - # 11
    frequency:     8.3038866074
  - # 12
    frequency:     8.3038866074

- q-position: [    0.2604167,    0.0104167,    0.0104167 ]
  weight: 24   
  band:
  - # 1
    frequency:     2.4040536575
  - # 2
    frequency:     2.4086733202
  - # 3
    frequency:     3.7110337807
  - # 4
    frequency:     5.4734261261
  - # 5
    frequency:     5.4761997622
  - # 6
    frequency:     5.9008520622
  - # 7
    frequency:     5.9008520622
  - # 8
    frequency:     6.4169678727
  - # 9
    frequency:     6.4169678727
  - # 10
    frequency:     8.0452948411
  - # 11
    frequency:     8.2458426643
  - # 12
    frequency:     8.2458426643

- q-position: [    0.2812500,    0.0104167,    0.0104167 ]
  weight: 24   
  band:
  - # 1
    frequency:     2.5835364071
  - # 2
    frequency:     2.5875551899
  - # 3
    frequency:     3.9792617719
  - # 4
    frequency:     5.3956964742
  - # 5
    frequency:     5.3982910038
  - # 6
    frequency:     5.8957647842
  - # 7
    frequency:     5.8957647842
  - # 8
    frequency:     6.4876743720
  - # 9
    frequency:     6.4876743720
  - # 10
    frequency:     7.9449515771
  - # 11
    frequency:     8.1839079506
  - # 12
    frequency:     8.1839079506

- q-position: [    0.3020833,    0.0104167,    0.0104167 ]
  weight: 24   
  band:
  - # 1
    frequency:     2.7599525265
  - # 2
    frequency:     2.7634301767
  - # 3
    frequency:     4.2417709589
  - # 4
    frequency:     5.3122555821
  - # 5
    frequency:     5.3146601661
  - # 6
    frequency:     5.8908048739
  - # 7
    frequency:     5.8908048739
  - # 8
    frequency:     6.5617823147
  - # 9
    frequency:     6.5617823147
  - # 10
    frequency:     7.8364910749
  - # 11
    frequency:     8.1183033592
  - # 12
    frequency:     8.1183033592

- q-position: [    0.3229167,    0.0104167,    0.0104167 ]
  weight: 24   
  band:
  - # 1
    frequency:     2.9331155378
  - # 2
    frequency:     2.9361003373
  - # 3
    frequency:     4.4982174565
  - # 4
    frequency:     5.2231667505
  - # 5
    frequency:     5.2253709390
  - # 6
    frequency:     5.8860574013
  - # 7
    frequency:     5.8860574013
  - # 8
    frequency:     6.6389155411
  - # 9
    frequency:     6.6389155411
  - # 10
    frequency:     7.7198604581
  - # 11
    frequency:     8.0492645031
  - # 12
    frequency:     8.0492645031

- q-position: [    0.3437500,    0.0104167,    0.0104167 ]
  weight: 24   
  band:
  - # 1
    frequency:     3.1028432197
  - # 2
    frequency:     3.1053746977
  - # 3
    frequency:     4.7482847901
  - # 4
    frequency:     5.1284990066
  - # 5
    frequency:     5.1304926829
  - # 6
    frequency:     5.8816040454
  - # 7
    frequency:     5.8816040454
  - # 8
    frequency:     6.7186922218
  - # 9
    frequency:     6.7186922218
  - # 10
    frequency:     7.5950145197
  - # 11
    frequency:     7.9770412642
  - # 12
    frequency:     7.9770412642

- q-position: [    0.3645833,    0.0104167,    0.0104167 ]
  weight: 24   
  band:
  - # 1
    frequency:     3.2689582882
  - # 2
    frequency:     3.2710692019
  - # 3
    frequency:     4.9916829251
  - # 4
    frequency:     5.0283272916
  - # 5
    frequency:     5.0301006027
  - # 6
    frequency:     5.8775216362
  - # 7
    frequency:     5.8775216362
  - # 8
    frequency:     6.8007271506
  - # 9
    frequency:     6.8007271506
  - # 10
    frequency:     7.4619175214
  - # 11
    frequency:     7.9018973293
  - # 12
    frequency:     7.9018973293

- q-position: [    0.3854167,    0.0104167,    0.0104167 ]
  weight: 24   
  band:
  - # 1
    frequency:     3.4312889114
  - # 2
    frequency:     3.4330067235
  - # 3
    frequency:     4.9227326421
  - # 4
    frequency:     4.9242759147
  - # 5
    frequency:     5.2281476525
  - # 6
    frequency:     5.8738807781
  - # 7
    frequency:     5.8738807781
  - # 8
    frequency:     6.8846337890
  - # 9
    frequency:     6.8846337890
  - # 10
    frequency:     7.3205449543
  - # 11
    frequency:     7.8241097226
  - # 12
    frequency:     7.8241097226

- q-position: [    0.4062500,    0.0104167,    0.0104167 ]
  weight: 24   
  band:
  - # 1
    frequency:     3.5896691038
  - # 2
    frequency:     3.5910171034
  - # 3
    frequency:     4.8118023637
  - # 4
    frequency:     4.8131060045
  - # 5
    frequency:     5.4574401438
  - # 6
    frequency:     5.8707445752
  - # 7
    frequency:     5.8707445752
  - # 8
    frequency:     6.9700260451
  - # 9
    frequency:     6.9700260451
  - # 10
    frequency:     7.1708852422
  - # 11
    frequency:     7.7439683592
  - # 12
    frequency:     7.7439683592

- q-position: [    0.4270833,    0.0104167,    0.0104167 ]
  weight: 24   
  band:
  - # 1
    frequency:     3.7439390267
  - # 2
    frequency:     3.7449371964
  - # 3
    frequency:     4.6956301930
  - # 4
    frequency:     4.6966845722
  - # 5
    frequency:     5.6793465618
  - # 6
    frequency:     5.8681674870
  - # 7
    frequency:     5.8681674870
  - # 8
    frequency:     7.0129413707
  - # 9
    frequency:     7.0565197179
  - # 10
    frequency:     7.0565197179
  - # 11
    frequency:     7.6617757048
  - # 12
    frequency:     7.6617757048

- q-position: [    0.4479167,    0.0104167,    0.0104167 ]
  weight: 24   
  band:
  - # 1
    frequency:     3.8939452149
  - # 2
    frequency:     3.8946109115
  - # 3
    frequency:     4.5743164461
  - # 4
    frequency:     4.5751117615
  - # 5
    frequency:     5.8661943337
  - # 6
    frequency:     5.8661943337
  - # 7
    frequency:     5.8936776547
  - # 8
    frequency:     6.8467324259
  - # 9
    frequency:     7.1437332600
  - # 10
    frequency:     7.1437332600
  - # 11
    frequency:     7.5778469014
  - # 12
    frequency:     7.5778469014

- q-position: [    0.4687500,    0.0104167,    0.0104167 ]
  weight: 24   
  band:
  - # 1
    frequency:     4.0395407423
  - # 2
    frequency:     4.0398892408
  - # 3
    frequency:     4.4479681516
  - # 4
    frequency:     4.4484942714
  - # 5
    frequency:     5.8648594745
  - # 6
    frequency:     5.8648594745
  - # 7
    frequency:     6.1002682844
  - # 8
    frequency:     6.6722950301
  - # 9
    frequency:     7.2312855767
  - # 10
    frequency:     7.2312855767
  - # 11
    frequency:     7.4925126575
  - # 12
    frequency:     7.4925126575

- q-position: [    0.4895833,    0.0104167,    0.0104167 ]
  weight: 24   
  band:
  - # 1
    frequency:     4.1805853360
  - # 2
    frequency:     4.1806302693
  - # 3
    frequency:     4.3166991659
  - # 4
    frequency:     4.3169454454
  - # 5
    frequency:     5.8641861743
  - # 6
    frequency:     5.8641861743
  - # 7
    frequency:     6.2989768614
  - # 8
    frequency:     6.4896846634
  - # 9
    frequency:     7.3187518295
  - # 10
    frequency:     7.3187518295
  - # 11
    frequency:     7.4061639477
  - # 12
    frequency:     7.4061639477

- q-position: [    0.0312500,    0.0312500,    0.0104167 ]
  weight: 24   
  band:
  - # 1
    frequency:     0.3202918923
  - # 2
    frequency:     0.4161092292
  - # 3
    frequency:     0.7407620892
  - # 4
    frequency:     5.9348414873
  - # 5
    frequency:     5.9365534999
  - # 6
    frequency:     5.9365534999
  - # 7
    frequency:     5.9502737470
  - # 8
    frequency:     5.9502737470
  - # 9
    frequency:     5.9699432025
  - # 10
    frequency:     8.6256304305
  - # 11
    frequency:     8.6256304305
  - # 12
    frequency:     8.6277988927

- q-position: [    0.0520833,    0.0312500,    0.0104167 ]
  weight: 48   
  band:
  - # 1
    frequency:     0.4612192311
  - # 2
    frequency:     0.5745319408
  - # 3
    frequency:     0.9862737562
  - # 4
    frequency:     5.9243332412
  - # 5
    frequency:     5.9280989755
  - # 6
    frequency:     5.9346687532
  - # 7
    frequency:     5.9380274493
  - # 8
    frequency:     5.9636631817
  - # 9
    frequency:     5.9880971081
  - # 10
    frequency:     8.6107646428
  - # 11
    frequency:     8.6152494910
  - # 12
    frequency:     8.6172980511

- q-position: [    0.0729167,    0.0312500,    0.0104167 ]
  weight: 48   
  band:
  - # 1
    frequency:     0.6456329170
  - # 2
    frequency:     0.7516342121
  - # 3
    frequency:     1.2512056366
  - # 4
    frequency:     5.9060117617
  - # 5
    frequency:     5.9196695220
  - # 6
    frequency:     5.9223420386
  - # 7
    frequency:     5.9323897300
  - # 8
    frequency:     5.9831244971
  - # 9
    frequency:     6.0108995940
  - # 10
    frequency:     8.5884412529
  - # 11
    frequency:     8.5997231111
  - # 12
    frequency:     8.6015918715

- q-position: [    0.0937500,    0.0312500,    0.0104167 ]
  weight: 48   
  band:
  - # 1
    frequency:     0.8417621840
  - # 2
    frequency:     0.9361812735
  - # 3
    frequency:     1.5260971392
  - # 4
    frequency:     5.8815998183
  - # 5
    frequency:     5.8952138241
  - # 6
    frequency:     5.9171707861
  - # 7
    frequency:     5.9295731425
  - # 8
    frequency:     6.0087125396
  - # 9
    frequency:     6.0386658152
  - # 10
    frequency:     8.5586312278
  - # 11
    frequency:     8.5791052066
  - # 12
    frequency:     8.5807343384

- q-position: [    0.1145833,    0.0312500,    0.0104167 ]
  weight: 48   
  band:
  - # 1
    frequency:     1.0403771584
  - # 2
    frequency:     1.1238362713
  - # 3
    frequency:     1.8062372568
  - # 4
    frequency:     5.8511118656
  - # 5
    frequency:     5.8646788910
  - # 6
    frequency:     5.9122836349
  - # 7
    frequency:     5.9262033862
  - # 8
    frequency:     6.0403269988
  - # 9
    frequency:     6.0715861682
  - # 10
    frequency:     8.5212968756
  - # 11
    frequency:     8.5534674675
  - # 12
    frequency:     8.5547972406

- q-position: [    0.1354167,    0.0312500,    0.0104167 ]
  weight: 48   
  band:
  - # 1
    frequency:     1.2385198585
  - # 2
    frequency:     1.3125612851
  - # 3
    frequency:     2.0887495172
  - # 4
    frequency:     5.8145661560
  - # 5
    frequency:     5.8280879775
  - # 6
    frequency:     5.9074877668
  - # 7
    frequency:     5.9223106757
  - # 8
    frequency:     6.0777958567
  - # 9
    frequency:     6.1097172522
  - # 10
    frequency:     8.4763926988
  - # 11
    frequency:     8.5228991904
  - # 12
    frequency:     8.5238700105

- q-position: [    0.1562500,    0.0312500,    0.0104167 ]
  weight: 48   
  band:
  - # 1
    frequency:     1.4350879314
  - # 2
    frequency:     1.5012229381
  - # 3
    frequency:     2.3716856117
  - # 4
    frequency:     5.7719848676
  - # 5
    frequency:     5.7854691053
  - # 6
    frequency:     5.9026757017
  - # 7
    frequency:     5.9179466886
  - # 8
    frequency:     6.1209015687
  - # 9
    frequency:     6.1530069301
  - # 10
    frequency:     8.4238664361
  - # 11
    frequency:     8.4875070717
  - # 12
    frequency:     8.4880595256

- q-position: [    0.1770833,    0.0312500,    0.0104167 ]
  weight: 48   
  band:
  - # 1
    frequency:     1.6295899249
  - # 2
    frequency:     1.6890962712
  - # 3
    frequency:     2.6536319309
  - # 4
    frequency:     5.7233942634
  - # 5
    frequency:     5.7368551107
  - # 6
    frequency:     5.8978013167
  - # 7
    frequency:     5.9131759470
  - # 8
    frequency:     6.1693916643
  - # 9
    frequency:     6.2013200855
  - # 10
    frequency:     8.3636602790
  - # 11
    frequency:     8.4474149639
  - # 12
    frequency:     8.4474898741

- q-position: [    0.1979167,    0.0312500,    0.0104167 ]
  weight: 48   
  band:
  - # 1
    frequency:     1.8217488044
  - # 2
    frequency:     1.8756621968
  - # 3
    frequency:     2.9335058988
  - # 4
    frequency:     5.6688248827
  - # 5
    frequency:     5.6822836885
  - # 6
    frequency:     5.8928611636
  - # 7
    frequency:     5.9080718892
  - # 8
    frequency:     6.2229847267
  - # 9
    frequency:     6.2544591463
  - # 10
    frequency:     8.2957122438
  - # 11
    frequency:     8.4023020880
  - # 12
    frequency:     8.4027635957

- q-position: [    0.2187500,    0.0312500,    0.0104167 ]
  weight: 48   
  band:
  - # 1
    frequency:     2.0113640372
  - # 2
    frequency:     2.0605152486
  - # 3
    frequency:     3.2104408810
  - # 4
    frequency:     5.6083117627
  - # 5
    frequency:     5.6217974312
  - # 6
    frequency:     5.8878810626
  - # 7
    frequency:     5.9027144838
  - # 8
    frequency:     6.2813748224
  - # 9
    frequency:     6.3121793259
  - # 10
    frequency:     8.2199576808
  - # 11
    frequency:     8.3526538438
  - # 12
    frequency:     8.3537102597

- q-position: [    0.2395833,    0.0312500,    0.0104167 ]
  weight: 48   
  band:
  - # 1
    frequency:     2.1982612563
  - # 2
    frequency:     2.2433177816
  - # 3
    frequency:     3.4837178925
  - # 4
    frequency:     5.5418946907
  - # 5
    frequency:     5.5554438612
  - # 6
    frequency:     5.8829066715
  - # 7
    frequency:     5.8971883813
  - # 8
    frequency:     6.3442353103
  - # 9
    frequency:     6.3741998199
  - # 10
    frequency:     8.1363308996
  - # 11
    frequency:     8.2987191361
  - # 12
    frequency:     8.3004284691

- q-position: [    0.2604167,    0.0312500,    0.0104167 ]
  weight: 48   
  band:
  - # 1
    frequency:     2.3822738362
  - # 2
    frequency:     2.4237756230
  - # 3
    frequency:     3.7527237266
  - # 4
    frequency:     5.4696184771
  - # 5
    frequency:     5.4832754605
  - # 6
    frequency:     5.8779967704
  - # 7
    frequency:     5.8915812571
  - # 8
    frequency:     6.4112223243
  - # 9
    frequency:     6.4402121652
  - # 10
    frequency:     8.0447668893
  - # 11
    frequency:     8.2406879262
  - # 12
    frequency:     8.2431075881

- q-position: [    0.2812500,    0.0312500,    0.0104167 ]
  weight: 48   
  band:
  - # 1
    frequency:     2.5632366335
  - # 2
    frequency:     2.6016243983
  - # 3
    frequency:     4.0169246157
  - # 4
    frequency:     5.3915332401
  - # 5
    frequency:     5.4053497039
  - # 6
    frequency:     5.8732183254
  - # 7
    frequency:     5.8859822195
  - # 8
    frequency:     6.4819780074
  - # 9
    frequency:     6.5098866615
  - # 10
    frequency:     7.9452031104
  - # 11
    frequency:     8.1787657699
  - # 12
    frequency:     8.1819524386

- q-position: [    0.3020833,    0.0312500,    0.0104167 ]
  weight: 48   
  band:
  - # 1
    frequency:     2.7409844360
  - # 2
    frequency:     2.7766215050
  - # 3
    frequency:     4.2758492921
  - # 4
    frequency:     5.3076946874
  - # 5
    frequency:     5.3217291062
  - # 6
    frequency:     5.8686427089
  - # 7
    frequency:     5.8804802435
  - # 8
    frequency:     6.5561335114
  - # 9
    frequency:     6.5828774505
  - # 10
    frequency:     7.8375813380
  - # 11
    frequency:     8.1131734318
  - # 12
    frequency:     8.1171828894

- q-position: [    0.3229167,    0.0312500,    0.0104167 ]
  weight: 48   
  band:
  - # 1
    frequency:     2.9153521860
  - # 2
    frequency:     2.9485412298
  - # 3
    frequency:     4.5290778722
  - # 4
    frequency:     5.2181643774
  - # 5
    frequency:     5.2324812948
  - # 6
    frequency:     5.8643426798
  - # 7
    frequency:     5.8751626284
  - # 8
    frequency:     6.6333117490
  - # 9
    frequency:     6.6588266352
  - # 10
    frequency:     7.7218495323
  - # 11
    frequency:     8.0441464939
  - # 12
    frequency:     8.0490334359

- q-position: [    0.3437500,    0.0312500,    0.0104167 ]
  weight: 48   
  band:
  - # 1
    frequency:     3.0861757988
  - # 2
    frequency:     3.1171716893
  - # 3
    frequency:     4.7762344114
  - # 4
    frequency:     5.1230099456
  - # 5
    frequency:     5.1376791197
  - # 6
    frequency:     5.8603898810
  - # 7
    frequency:     5.8701134880
  - # 8
    frequency:     6.7131298773
  - # 9
    frequency:     6.7373676702
  - # 10
    frequency:     7.5979637170
  - # 11
    frequency:     7.9719349776
  - # 12
    frequency:     7.9777527877

- q-position: [    0.3645833,    0.0312500,    0.0104167 ]
  weight: 48   
  band:
  - # 1
    frequency:     3.2532931025
  - # 2
    frequency:     3.2823128642
  - # 3
    frequency:     5.0169818073
  - # 4
    frequency:     5.0223052819
  - # 5
    frequency:     5.0374008063
  - # 6
    frequency:     5.8568527119
  - # 7
    frequency:     5.8654122958
  - # 8
    frequency:     6.7952014810
  - # 9
    frequency:     6.8181281483
  - # 10
    frequency:     7.4658898457
  - # 11
    frequency:     7.8968030168
  - # 12
    frequency:     7.9036034935

- q-position: [    0.3854167,    0.0312500,    0.0104167 ]
  weight: 48   
  band:
  - # 1
    frequency:     3.4165447200
  - # 2
    frequency:     3.4437753072
  - # 3
    frequency:     4.9161306550
  - # 4
    frequency:     4.9317301525
  - # 5
    frequency:     5.2510182152
  - # 6
    frequency:     5.8537944913
  - # 7
    frequency:     5.8611325076
  - # 8
    frequency:     6.8791383798
  - # 9
    frequency:     6.9007320011
  - # 10
    frequency:     7.3256056368
  - # 11
    frequency:     7.8190286718
  - # 12
    frequency:     7.8268616847

- q-position: [    0.4062500,    0.0312500,    0.0104167 ]
  weight: 48   
  band:
  - # 1
    frequency:     3.5757748316
  - # 2
    frequency:     3.6013792740
  - # 3
    frequency:     4.8045727815
  - # 4
    frequency:     4.8207567655
  - # 5
    frequency:     5.4780744386
  - # 6
    frequency:     5.8512718675
  - # 7
    frequency:     5.8573402866
  - # 8
    frequency:     6.9645518584
  - # 9
    frequency:     6.9848009326
  - # 10
    frequency:     7.1771023620
  - # 11
    frequency:     7.7389041431
  - # 12
    frequency:     7.7478171486

- q-position: [    0.4270833,    0.0312500,    0.0104167 ]
  weight: 48   
  band:
  - # 1
    frequency:     3.7308318121
  - # 2
    frequency:     3.7549541215
  - # 3
    frequency:     4.6877248481
  - # 4
    frequency:     4.7045763247
  - # 5
    frequency:     5.6979119415
  - # 6
    frequency:     5.8493334558
  - # 7
    frequency:     5.8540933552
  - # 8
    frequency:     7.0203865732
  - # 9
    frequency:     7.0510526387
  - # 10
    frequency:     7.0699542858
  - # 11
    frequency:     7.6567372402
  - # 12
    frequency:     7.6667744246

- q-position: [    0.4479167,    0.0312500,    0.0104167 ]
  weight: 48   
  band:
  - # 1
    frequency:     3.8815687481
  - # 2
    frequency:     3.9043378754
  - # 3
    frequency:     4.5656864931
  - # 4
    frequency:     4.5832908596
  - # 5
    frequency:     5.8480186942
  - # 6
    frequency:     5.8514399978
  - # 7
    frequency:     5.9103212482
  - # 8
    frequency:     6.8554817584
  - # 9
    frequency:     7.1382467745
  - # 10
    frequency:     7.1558036894
  - # 11
    frequency:     7.5728578000
  - # 12
    frequency:     7.5840577576

- q-position: [    0.4687500,    0.0312500,    0.0104167 ]
  weight: 48   
  band:
  - # 1
    frequency:     4.0278438545
  - # 2
    frequency:     4.0493769028
  - # 3
    frequency:     4.4385637556
  - # 4
    frequency:     4.4570090285
  - # 5
    frequency:     5.8473569195
  - # 6
    frequency:     5.8494182355
  - # 7
    frequency:     6.1151205697
  - # 8
    frequency:     6.6824299155
  - # 9
    frequency:     7.2257103588
  - # 10
    frequency:     7.2419180655
  - # 11
    frequency:     7.4876535081
  - # 12
    frequency:     7.5000370344

- q-position: [    0.4895833,    0.0312500,    0.0104167 ]
  weight: 48   
  band:
  - # 1
    frequency:     4.1695208061
  - # 2
    frequency:     4.1899256459
  - # 3
    frequency:     4.3064689984
  - # 4
    frequency:     4.3258463877
  - # 5
    frequency:     5.8473666661
  - # 6
    frequency:     5.8480551922
  - # 7
    frequency:     6.3121545478
  - # 8
    frequency:     6.5012930434
  - # 9
    frequency:     7.3126954977
  - # 10
    frequency:     7.3272816388
  - # 11
    frequency:     7.4021125074
  - # 12
    frequency:     7.4154222612

- q-position: [    0.0520833,    0.0520833,    0.0104167 ]
  weight: 24   
  band:
  - # 1
    frequency:     0.5159183959
  - # 2
    frequency:     0.6978152928
  - # 3
    frequency:     1.2040687946
  - # 4
    frequency:     5.9152569825
  - # 5
    frequency:     5.9223035625
  - # 6
    frequency:     5.9223035625
  - # 7
    frequency:     5.9514177222
  - # 8
    frequency:     5.9514177222
  - # 9
    frequency:     6.0120216438
  - # 10
    frequency:     8.6006302079
  - # 11
    frequency:     8.6006302079
  - # 12
    frequency:     8.6068041006

- q-position: [    0.0729167,    0.0520833,    0.0104167 ]
  weight: 48   
  band:
  - # 1
    frequency:     0.6458268025
  - # 2
    frequency:     0.8495740453
  - # 3
    frequency:     1.4457630259
  - # 4
    frequency:     5.9037342097
  - # 5
    frequency:     5.9037640321
  - # 6
    frequency:     5.9197812886
  - # 7
    frequency:     5.9330633640
  - # 8
    frequency:     5.9709061529
  - # 9
    frequency:     6.0401028591
  - # 10
    frequency:     8.5786759448
  - # 11
    frequency:     8.5854732174
  - # 12
    frequency:     8.5911080924

- q-position: [    0.0937500,    0.0520833,    0.0104167 ]
  weight: 48   
  band:
  - # 1
    frequency:     0.8147815800
  - # 2
    frequency:     1.0164774925
  - # 3
    frequency:     1.7003813765
  - # 4
    frequency:     5.8790602850
  - # 5
    frequency:     5.8934833768
  - # 6
    frequency:     5.9086165535
  - # 7
    frequency:     5.9166309581
  - # 8
    frequency:     5.9965398035
  - # 9
    frequency:     6.0723104821
  - # 10
    frequency:     8.5493569478
  - # 11
    frequency:     8.5653471387
  - # 12
    frequency:     8.5702638159

- q-position: [    0.1145833,    0.0520833,    0.0104167 ]
  weight: 48   
  band:
  - # 1
    frequency:     1.0006573726
  - # 2
    frequency:     1.1915398235
  - # 3
    frequency:     1.9626774362
  - # 4
    frequency:     5.8482061683
  - # 5
    frequency:     5.8780989787
  - # 6
    frequency:     5.8842976598
  - # 7
    frequency:     5.9128413763
  - # 8
    frequency:     6.0282140669
  - # 9
    frequency:     6.1087493739
  - # 10
    frequency:     8.5126346218
  - # 11
    frequency:     8.5403230509
  - # 12
    frequency:     8.5443428051

- q-position: [    0.1354167,    0.0520833,    0.0104167 ]
  weight: 48   
  band:
  - # 1
    frequency:     1.1933157869
  - # 2