<?xml version="1.0" encoding="ISO-8859-1"?>
<modeling>
 <generator>
  <i name="program" type="string">vasp</i>
  <i name="version" type="string">4.6.28 </i>
  <i name="subversion" type="string">25Jul05 complex  parallel</i>
  <i name="platform" type="string">LinuxIFC</i>
  <i name="date" type="string">2017 01 09</i>
  <i name="time" type="string">17:42:04</i>
 </generator>
 <incar>
  <i type="string" name="PREC">accurate</i>
  <i type="int" name="IALGO">    38</i>
  <i type="logical" name="ADDGRID"> T  </i>
  <i name="EDIFF">      0.00000001</i>
  <i type="int" name="IBRION">    -1</i>
  <i name="ENCUT">    750.00000000</i>
  <i type="logical" name="LREAL"> F  </i>
  <i type="int" name="ISMEAR">     0</i>
  <i name="SIGMA">      0.01000000</i>
  <i type="logical" name="LWAVE"> F  </i>
  <i type="logical" name="LCHARG"> F  </i>
 </incar>
 <kpoints>
  <generation param="Gamma">
   <v type="int" name="divisions">      12      12      12</v>
   <v name="usershift">      0.00000000      0.00000000      0.00000000</v>
   <v name="genvec1">      0.08333333      0.00000000      0.00000000</v>
   <v name="genvec2">      0.00000000      0.08333333      0.00000000</v>
   <v name="genvec3">      0.00000000      0.00000000      0.08333333</v>
   <v name="shift">      0.00000000      0.00000000      0.00000000</v>
  </generation>
  <varray name="kpointlist" >
   <v>       0.00000000      0.00000000      0.00000000</v>
   <v>       0.08333333      0.00000000      0.00000000</v>
   <v>       0.16666667      0.00000000      0.00000000</v>
   <v>       0.25000000      0.00000000      0.00000000</v>
   <v>       0.33333333      0.00000000      0.00000000</v>
   <v>       0.41666667      0.00000000      0.00000000</v>
   <v>       0.50000000      0.00000000      0.00000000</v>
   <v>       0.00000000      0.08333333      0.00000000</v>
   <v>       0.08333333      0.08333333      0.00000000</v>
   <v>       0.16666667      0.08333333      0.00000000</v>
   <v>       0.25000000      0.08333333      0.00000000</v>
   <v>       0.33333333      0.08333333      0.00000000</v>
   <v>       0.41666667      0.08333333      0.00000000</v>
   <v>       0.50000000      0.08333333      0.00000000</v>
   <v>       0.00000000      0.16666667      0.00000000</v>
   <v>       0.08333333      0.16666667      0.00000000</v>
   <v>       0.16666667      0.16666667      0.00000000</v>
   <v>       0.25000000      0.16666667      0.00000000</v>
   <v>       0.33333333      0.16666667      0.00000000</v>
   <v>       0.41666667      0.16666667      0.00000000</v>
   <v>       0.50000000      0.16666667      0.00000000</v>
   <v>       0.00000000      0.25000000      0.00000000</v>
   <v>       0.08333333      0.25000000      0.00000000</v>
   <v>       0.16666667      0.25000000      0.00000000</v>
   <v>       0.25000000      0.25000000      0.00000000</v>
   <v>       0.33333333      0.25000000      0.00000000</v>
   <v>       0.41666667      0.25000000      0.00000000</v>
   <v>       0.50000000      0.25000000      0.00000000</v>
   <v>       0.00000000      0.33333333      0.00000000</v>
   <v>       0.08333333      0.33333333      0.00000000</v>
   <v>       0.16666667      0.33333333      0.00000000</v>
   <v>       0.25000000      0.33333333      0.00000000</v>
   <v>       0.33333333      0.33333333      0.00000000</v>
   <v>       0.41666667      0.33333333      0.00000000</v>
   <v>       0.50000000      0.33333333      0.00000000</v>
   <v>       0.00000000      0.41666667      0.00000000</v>
   <v>       0.08333333      0.41666667      0.00000000</v>
   <v>       0.16666667      0.41666667      0.00000000</v>
   <v>       0.25000000      0.41666667      0.00000000</v>
   <v>       0.33333333      0.41666667      0.00000000</v>
   <v>       0.41666667      0.41666667      0.00000000</v>
   <v>       0.50000000      0.41666667      0.00000000</v>
   <v>       0.00000000      0.50000000      0.00000000</v>
   <v>       0.08333333      0.50000000      0.00000000</v>
   <v>       0.16666667      0.50000000      0.00000000</v>
   <v>       0.25000000      0.50000000      0.00000000</v>
   <v>       0.33333333      0.50000000      0.00000000</v>
   <v>       0.41666667      0.50000000      0.00000000</v>
   <v>       0.50000000      0.50000000      0.00000000</v>
   <v>       0.00000000      0.08333333      0.08333333</v>
   <v>       0.08333333      0.08333333      0.08333333</v>
   <v>       0.16666667      0.08333333      0.08333333</v>
   <v>       0.25000000      0.08333333      0.08333333</v>
   <v>       0.33333333      0.08333333      0.08333333</v>
   <v>       0.41666667      0.08333333      0.08333333</v>
   <v>       0.50000000      0.08333333      0.08333333</v>
   <v>       0.00000000      0.16666667      0.08333333</v>
   <v>       0.08333333      0.16666667      0.08333333</v>
   <v>       0.16666667      0.16666667      0.08333333</v>
   <v>       0.25000000      0.16666667      0.08333333</v>
   <v>       0.33333333      0.16666667      0.08333333</v>
   <v>       0.41666667      0.16666667      0.08333333</v>
   <v>       0.50000000      0.16666667      0.08333333</v>
   <v>       0.00000000      0.25000000      0.08333333</v>
   <v>       0.08333333      0.25000000      0.08333333</v>
   <v>       0.16666667      0.25000000      0.08333333</v>
   <v>       0.25000000      0.25000000      0.08333333</v>
   <v>       0.33333333      0.25000000      0.08333333</v>
   <v>       0.41666667      0.25000000      0.08333333</v>
   <v>       0.50000000      0.25000000      0.08333333</v>
   <v>       0.00000000      0.33333333      0.08333333</v>
   <v>       0.08333333      0.33333333      0.08333333</v>
   <v>       0.16666667      0.33333333      0.08333333</v>
   <v>       0.25000000      0.33333333      0.08333333</v>
   <v>       0.33333333      0.33333333      0.08333333</v>
   <v>       0.41666667      0.33333333      0.08333333</v>
   <v>       0.50000000      0.33333333      0.08333333</v>
   <v>       0.00000000      0.41666667      0.08333333</v>
   <v>       0.08333333      0.41666667      0.08333333</v>
   <v>       0.16666667      0.41666667      0.08333333</v>
   <v>       0.25000000      0.41666667      0.08333333</v>
   <v>       0.33333333      0.41666667      0.08333333</v>
   <v>       0.41666667      0.41666667      0.08333333</v>
   <v>       0.50000000      0.41666667      0.08333333</v>
   <v>       0.00000000      0.50000000      0.08333333</v>
   <v>       0.08333333      0.50000000      0.08333333</v>
   <v>       0.16666667      0.50000000      0.08333333</v>
   <v>       0.25000000      0.50000000      0.08333333</v>
   <v>       0.33333333      0.50000000      0.08333333</v>
   <v>       0.41666667      0.50000000      0.08333333</v>
   <v>       0.50000000      0.50000000      0.08333333</v>
   <v>       0.00000000      0.16666667      0.16666667</v>
   <v>       0.08333333      0.16666667      0.16666667</v>
   <v>       0.16666667      0.16666667      0.16666667</v>
   <v>       0.25000000      0.16666667      0.16666667</v>
   <v>       0.33333333      0.16666667      0.16666667</v>
   <v>       0.41666667      0.16666667      0.16666667</v>
   <v>       0.50000000      0.16666667      0.16666667</v>
   <v>       0.00000000      0.25000000      0.16666667</v>
   <v>       0.08333333      0.25000000      0.16666667</v>
   <v>       0.16666667      0.25000000      0.16666667</v>
   <v>       0.25000000      0.25000000      0.16666667</v>
   <v>       0.33333333      0.25000000      0.16666667</v>
   <v>       0.41666667      0.25000000      0.16666667</v>
   <v>       0.50000000      0.25000000      0.16666667</v>
   <v>       0.00000000      0.33333333      0.16666667</v>
   <v>       0.08333333      0.33333333      0.16666667</v>
   <v>       0.16666667      0.33333333      0.16666667</v>
   <v>       0.25000000      0.33333333      0.16666667</v>
   <v>       0.33333333      0.33333333      0.16666667</v>
   <v>       0.41666667      0.33333333      0.16666667</v>
   <v>       0.50000000      0.33333333      0.16666667</v>
   <v>       0.00000000      0.41666667      0.16666667</v>
   <v>       0.08333333      0.41666667      0.16666667</v>
   <v>       0.16666667      0.41666667      0.16666667</v>
   <v>       0.25000000      0.41666667      0.16666667</v>
   <v>       0.33333333      0.41666667      0.16666667</v>
   <v>       0.41666667      0.41666667      0.16666667</v>
   <v>       0.50000000      0.41666667      0.16666667</v>
   <v>       0.00000000      0.50000000      0.16666667</v>
   <v>       0.08333333      0.50000000      0.16666667</v>
   <v>       0.16666667      0.50000000      0.16666667</v>
   <v>       0.25000000      0.50000000      0.16666667</v>
   <v>       0.33333333      0.50000000      0.16666667</v>
   <v>       0.41666667      0.50000000      0.16666667</v>
   <v>       0.50000000      0.50000000      0.16666667</v>
   <v>       0.00000000      0.25000000      0.25000000</v>
   <v>       0.08333333      0.25000000      0.25000000</v>
   <v>       0.16666667      0.25000000      0.25000000</v>
   <v>       0.25000000      0.25000000      0.25000000</v>
   <v>       0.33333333      0.25000000      0.25000000</v>
   <v>       0.41666667      0.25000000      0.25000000</v>
   <v>       0.50000000      0.25000000      0.25000000</v>
   <v>       0.00000000      0.33333333      0.25000000</v>
   <v>       0.08333333      0.33333333      0.25000000</v>
   <v>       0.16666667      0.33333333      0.25000000</v>
   <v>       0.25000000      0.33333333      0.25000000</v>
   <v>       0.33333333      0.33333333      0.25000000</v>
   <v>       0.41666667      0.33333333      0.25000000</v>
   <v>       0.50000000      0.33333333      0.25000000</v>
   <v>       0.00000000      0.41666667      0.25000000</v>
   <v>       0.08333333      0.41666667      0.25000000</v>
   <v>       0.16666667      0.41666667      0.25000000</v>
   <v>       0.25000000      0.41666667      0.25000000</v>
   <v>       0.33333333      0.41666667      0.25000000</v>
   <v>       0.41666667      0.41666667      0.25000000</v>
   <v>       0.50000000      0.41666667      0.25000000</v>
   <v>       0.00000000      0.50000000      0.25000000</v>
   <v>       0.08333333      0.50000000      0.25000000</v>
   <v>       0.16666667      0.50000000      0.25000000</v>
   <v>       0.25000000      0.50000000      0.25000000</v>
   <v>       0.33333333      0.50000000      0.25000000</v>
   <v>       0.41666667      0.50000000      0.25000000</v>
   <v>       0.50000000      0.50000000      0.25000000</v>
   <v>       0.00000000      0.33333333      0.33333333</v>
   <v>       0.08333333      0.33333333      0.33333333</v>
   <v>       0.16666667      0.33333333      0.33333333</v>
   <v>       0.25000000      0.33333333      0.33333333</v>
   <v>       0.33333333      0.33333333      0.33333333</v>
   <v>       0.41666667      0.33333333      0.33333333</v>
   <v>       0.50000000      0.33333333      0.33333333</v>
   <v>       0.00000000      0.41666667      0.33333333</v>
   <v>       0.08333333      0.41666667      0.33333333</v>
   <v>       0.16666667      0.41666667      0.33333333</v>
   <v>       0.25000000      0.41666667      0.33333333</v>
   <v>       0.33333333      0.41666667      0.33333333</v>
   <v>       0.41666667      0.41666667      0.33333333</v>
   <v>       0.50000000      0.41666667      0.33333333</v>
   <v>       0.00000000      0.50000000      0.33333333</v>
   <v>       0.08333333      0.50000000      0.33333333</v>
   <v>       0.16666667      0.50000000      0.33333333</v>
   <v>       0.25000000      0.50000000      0.33333333</v>
   <v>       0.33333333      0.50000000      0.33333333</v>
   <v>       0.41666667      0.50000000      0.33333333</v>
   <v>       0.50000000      0.50000000      0.33333333</v>
   <v>       0.00000000      0.41666667      0.41666667</v>
   <v>       0.08333333      0.41666667      0.41666667</v>
   <v>       0.16666667      0.41666667      0.41666667</v>
   <v>       0.25000000      0.41666667      0.41666667</v>
   <v>       0.33333333      0.41666667      0.41666667</v>
   <v>       0.41666667      0.41666667      0.41666667</v>
   <v>       0.50000000      0.41666667      0.41666667</v>
   <v>       0.00000000      0.50000000      0.41666667</v>
   <v>       0.08333333      0.50000000      0.41666667</v>
   <v>       0.16666667      0.50000000      0.41666667</v>
   <v>       0.25000000      0.50000000      0.41666667</v>
   <v>       0.33333333      0.50000000      0.41666667</v>
   <v>       0.41666667      0.50000000      0.41666667</v>
   <v>       0.50000000      0.50000000      0.41666667</v>
   <v>       0.00000000      0.50000000      0.50000000</v>
   <v>       0.08333333      0.50000000      0.50000000</v>
   <v>       0.16666667      0.50000000      0.50000000</v>
   <v>       0.25000000      0.50000000      0.50000000</v>
   <v>       0.33333333      0.50000000      0.50000000</v>
   <v>       0.41666667      0.50000000      0.50000000</v>
   <v>       0.50000000      0.50000000      0.50000000</v>
  </varray>
  <varray name="weights" >
   <v>       0.00057870</v>
   <v>       0.00115741</v>
   <v>       0.00115741</v>
   <v>       0.00115741</v>
   <v>       0.00115741</v>
   <v>       0.00115741</v>
   <v>       0.00057870</v>
   <v>       0.00231481</v>
   <v>       0.00462963</v>
   <v>       0.00462963</v>
   <v>       0.00462963</v>
   <v>       0.00462963</v>
   <v>       0.00462963</v>
   <v>       0.00231481</v>
   <v>       0.00231481</v>
   <v>       0.00462963</v>
   <v>       0.00462963</v>
   <v>       0.00462963</v>
   <v>       0.00462963</v>
   <v>       0.00462963</v>
   <v>       0.00231481</v>
   <v>       0.00231481</v>
   <v>       0.00462963</v>
   <v>       0.00462963</v>
   <v>       0.00462963</v>
   <v>       0.00462963</v>
   <v>       0.00462963</v>
   <v>       0.00231481</v>
   <v>       0.00231481</v>
   <v>       0.00462963</v>
   <v>       0.00462963</v>
   <v>       0.00462963</v>
   <v>       0.00462963</v>
   <v>       0.00462963</v>
   <v>       0.00231481</v>
   <v>       0.00231481</v>
   <v>       0.00462963</v>
   <v>       0.00462963</v>
   <v>       0.00462963</v>
   <v>       0.00462963</v>
   <v>       0.00462963</v>
   <v>       0.00231481</v>
   <v>       0.00115741</v>
   <v>       0.00231481</v>
   <v>       0.00231481</v>
   <v>       0.00231481</v>
   <v>       0.00231481</v>
   <v>       0.00231481</v>
   <v>       0.00115741</v>
   <v>       0.00231481</v>
   <v>       0.00462963</v>
   <v>       0.00462963</v>
   <v>       0.00462963</v>
   <v>       0.00462963</v>
   <v>       0.00462963</v>
   <v>       0.00231481</v>
   <v>       0.00462963</v>
   <v>       0.00925926</v>
   <v>       0.00925926</v>
   <v>       0.00925926</v>
   <v>       0.00925926</v>
   <v>       0.00925926</v>
   <v>       0.00462963</v>
   <v>       0.00462963</v>
   <v>       0.00925926</v>
   <v>       0.00925926</v>
   <v>       0.00925926</v>
   <v>       0.00925926</v>
   <v>       0.00925926</v>
   <v>       0.00462963</v>
   <v>       0.00462963</v>
   <v>       0.00925926</v>
   <v>       0.00925926</v>
   <v>       0.00925926</v>
   <v>       0.00925926</v>
   <v>       0.00925926</v>
   <v>       0.00462963</v>
   <v>       0.00462963</v>
   <v>       0.00925926</v>
   <v>       0.00925926</v>
   <v>       0.00925926</v>
   <v>       0.00925926</v>
   <v>       0.00925926</v>
   <v>       0.00462963</v>
   <v>       0.00231481</v>
   <v>       0.00462963</v>
   <v>       0.00462963</v>
   <v>       0.00462963</v>
   <v>       0.00462963</v>
   <v>       0.00462963</v>
   <v>       0.00231481</v>
   <v>       0.00231481</v>
   <v>       0.00462963</v>
   <v>       0.00462963</v>
   <v>       0.00462963</v>
   <v>       0.00462963</v>
   <v>       0.00462963</v>
   <v>       0.00231481</v>
   <v>       0.00462963</v>
   <v>       0.00925926</v>
   <v>       0.00925926</v>
   <v>       0.00925926</v>
   <v>       0.00925926</v>
   <v>       0.00925926</v>
   <v>       0.00462963</v>
   <v>       0.00462963</v>
   <v>       0.00925926</v>
   <v>       0.00925926</v>
   <v>       0.00925926</v>
   <v>       0.00925926</v>
   <v>       0.00925926</v>
   <v>       0.00462963</v>
   <v>       0.00462963</v>
   <v>       0.00925926</v>
   <v>       0.00925926</v>
   <v>       0.00925926</v>
   <v>       0.00925926</v>
   <v>       0.00925926</v>
   <v>       0.00462963</v>
   <v>       0.00231481</v>
   <v>       0.00462963</v>
   <v>       0.00462963</v>
   <v>       0.00462963</v>
   <v>       0.00462963</v>
   <v>       0.00462963</v>
   <v>       0.00231481</v>
   <v>       0.00231481</v>
   <v>       0.00462963</v>
   <v>       0.00462963</v>
   <v>       0.00462963</v>
   <v>       0.00462963</v>
   <v>       0.00462963</v>
   <v>       0.00231481</v>
   <v>       0.00462963</v>
   <v>       0.00925926</v>
   <v>       0.00925926</v>
   <v>       0.00925926</v>
   <v>       0.00925926</v>
   <v>       0.00925926</v>
   <v>       0.00462963</v>
   <v>       0.00462963</v>
   <v>       0.00925926</v>
   <v>       0.00925926</v>
   <v>       0.00925926</v>
   <v>       0.00925926</v>
   <v>       0.00925926</v>
   <v>       0.00462963</v>
   <v>       0.00231481</v>
   <v>       0.00462963</v>
   <v>       0.00462963</v>
   <v>       0.00462963</v>
   <v>       0.00462963</v>
   <v>       0.00462963</v>
   <v>       0.00231481</v>
   <v>       0.00231481</v>
   <v>       0.00462963</v>
   <v>       0.00462963</v>
   <v>       0.00462963</v>
   <v>       0.00462963</v>
   <v>       0.00462963</v>
   <v>       0.00231481</v>
   <v>       0.00462963</v>
   <v>       0.00925926</v>
   <v>       0.00925926</v>
   <v>       0.00925926</v>
   <v>       0.00925926</v>
   <v>       0.00925926</v>
   <v>       0.00462963</v>
   <v>       0.00231481</v>
   <v>       0.00462963</v>
   <v>       0.00462963</v>
   <v>       0.00462963</v>
   <v>       0.00462963</v>
   <v>       0.00462963</v>
   <v>       0.00231481</v>
   <v>       0.00231481</v>
   <v>       0.00462963</v>
   <v>       0.00462963</v>
   <v>       0.00462963</v>
   <v>       0.00462963</v>
   <v>       0.00462963</v>
   <v>       0.00231481</v>
   <v>       0.00231481</v>
   <v>       0.00462963</v>
   <v>       0.00462963</v>
   <v>       0.00462963</v>
   <v>       0.00462963</v>
   <v>       0.00462963</v>
   <v>       0.00231481</v>
   <v>       0.00057870</v>
   <v>       0.00115741</v>
   <v>       0.00115741</v>
   <v>       0.00115741</v>
   <v>       0.00115741</v>
   <v>       0.00115741</v>
   <v>       0.00057870</v>
  </varray>
 </kpoints>
 <parameters>
  <separator name="general" >
   <i type="string" name="SYSTEM">unknown system</i>
   <i type="logical" name="LCOMPAT"> F  </i>
  </separator>
  <separator name="electronic" >
   <i type="string" name="PREC">accura</i>
   <i name="ENMAX">    750.00000000</i>
   <i name="ENAUG">    516.45600000</i>
   <i name="EDIFF">      0.00000001</i>
   <i type="int" name="IALGO">    38</i>
   <i type="int" name="IWAVPR">    10</i>
   <i type="int" name="NBANDS">   211</i>
   <i name="NELECT">    352.00000000</i>
   <separator name="electronic smearing" >
    <i type="int" name="ISMEAR">     0</i>
    <i name="SIGMA">      0.01000000</i>
   </separator>
   <separator name="electronic projectors" >
    <i type="logical" name="LREAL"> F  </i>
    <v name="ROPT">      0.00000000</v>
    <i type="int" name="LMAXPAW">  -100</i>
    <i type="int" name="LMAXMIX">     2</i>
   </separator>
   <separator name="electronic startup" >
    <i type="int" name="ISTART">     0</i>
    <i type="int" name="ICHARG">     2</i>
    <i type="int" name="INIWAV">     1</i>
   </separator>
   <separator name="electronic spin" >
    <i type="int" name="ISPIN">     1</i>
    <i type="logical" name="LNONCOLLINEAR"> F  </i>
    <v name="MAGMOM">      1.00000000      1.00000000      1.00000000      1.00000000      1.00000000      1.00000000      1.00000000      1.00000000      1.00000000      1.00000000      1.00000000      1.00000000      1.00000000      1.00000000      1.00000000      1.00000000      1.00000000      1.00000000      1.00000000      1.00000000
      1.00000000      1.00000000      1.00000000      1.00000000      1.00000000      1.00000000      1.00000000      1.00000000      1.00000000      1.00000000      1.00000000      1.00000000</v>
    <i name="NUPDOWN">     -1.00000000</i>
    <i type="logical" name="LSORBIT"> F  </i>
    <v name="SAXIS">      0.00000000      0.00000000      1.00000000</v>
    <i type="logical" name="LSPIRAL"> F  </i>
    <v name="QSPIRAL">      0.00000000      0.00000000      0.00000000</v>
    <i type="logical" name="LZEROZ"> F  </i>
   </separator>
   <separator name="electronic exchange-correlation" >
    <i type="string" name="GGA">--</i>
    <i type="int" name="VOSKOWN">     0</i>
    <i type="logical" name="LASPH"> F  </i>
    <i type="logical" name="LMETAGGA"> F  </i>
    <i type="string" name="GGA2">--</i>
   </separator>
   <separator name="electronic convergence" >
    <i type="int" name="NELM">    60</i>
    <i type="int" name="NELMDL">     0</i>
    <i type="int" name="NELMIN">     2</i>
    <i name="ENINI">    750.00000000</i>
    <separator name="electronic convergence detail" >
     <i type="logical" name="LDIAG"> T  </i>
     <i name="WEIMIN">      0.00000000</i>
     <i name="EBREAK">      0.00000000</i>
     <i name="DEPER">      0.30000000</i>
     <i type="int" name="NRMM">     4</i>
     <i name="TIME">      0.10000000</i>
    </separator>
   </separator>
   <separator name="electronic mixer" >
    <i name="AMIX">      0.40000000</i>
    <i name="BMIX">      1.00000000</i>
    <i name="AMIN">      0.10000000</i>
    <i name="AMIX_MAG">      1.60000000</i>
    <i name="BMIX_MAG">      1.00000000</i>
    <separator name="electronic mixer details" >
     <i type="int" name="IMIX">     4</i>
     <i type="int" name="MAXMIX">   -45</i>
     <i name="WC">    100.00000000</i>
     <i type="int" name="INIMIX">     1</i>
     <i type="int" name="MIXPRE">     1</i>
     <i type="int" name="MREMOVE">     5</i>
    </separator>
   </separator>
   <separator name="electronic dipolcorrection" >
    <i type="int" name="IDIPOL">     0</i>
    <i type="logical" name="LDIPOL"> F  </i>
    <v name="DIPOL">   -100.00000000</v>
    <i name="EFIELD">      0.00000000</i>
   </separator>
  </separator>
  <separator name="grids" >
   <i type="int" name="NGX">    64</i>
   <i type="int" name="NGY">    64</i>
   <i type="int" name="NGZ">    64</i>
   <i type="int" name="NGXF">   128</i>
   <i type="int" name="NGYF">   128</i>
   <i type="int" name="NGZF">   128</i>
   <i type="logical" name="ADDGRID"> T  </i>
  </separator>
  <separator name="ionic" >
   <i type="int" name="NSW">     0</i>
   <i type="int" name="IBRION">    -1</i>
   <i type="int" name="ISIF">     2</i>
   <i name="PSTRESS">      0.00000000</i>
   <i name="EDIFFG">      0.00000010</i>
   <i type="int" name="NFREE">     0</i>
   <i name="POTIM">      0.50000000</i>
   <i name="SMASS">     -3.00000000</i>
  </separator>
  <separator name="ionic md" >
   <i name="TEBEG">      0.00010000</i>
   <i name="TEEND">      0.00010000</i>
   <i type="int" name="NBLOCK">     1</i>
   <i type="int" name="KBLOCK">     1</i>
   <i type="int" name="NPACO">   256</i>
   <i name="APACO">     16.00000000</i>
  </separator>
  <separator name="symmetry" >
   <i type="int" name="ISYM">     2</i>
   <i name="SYMPREC">      0.00001000</i>
  </separator>
  <separator name="dos" >
   <i type="logical" name="LORBIT"> F  </i>
   <v name="RWIGS">     -1.00000000</v>
   <i type="int" name="NEDOS">   301</i>
   <i name="EMIN">     10.00000000</i>
   <i name="EMAX">    -10.00000000</i>
  </separator>
  <separator name="writing" >
   <i type="int" name="NWRITE">     2</i>
   <i type="logical" name="LWAVE"> F  </i>
   <i type="logical" name="LCHARG"> F  </i>
   <i type="logical" name="LPARD"> F  </i>
   <i type="logical" name="LVTOT"> F  </i>
   <i type="logical" name="LELF"> F  </i>
   <i type="logical" name="LOPTICS"> F  </i>
   <i name="STM">      0.00000000</i>
  </separator>
  <separator name="performance" >
   <i type="int" name="NPAR">     4</i>
   <i type="int" name="NSIM">     4</i>
   <i type="int" name="NBLK">   256</i>
   <i type="logical" name="LPLANE"> T  </i>
   <i type="logical" name="LCRITICAL_MEM"> F  </i>
   <i type="logical" name="LSCALAPACK"> F  </i>
   <i type="logical" name="LSCALU"> F  </i>
   <i type="logical" name="LASYNC"> F  </i>
  </separator>
  <separator name="miscellaneous" >
   <i type="int" name="IDIOT">     3</i>
   <i type="logical" name="LMUSIC"> F  </i>
   <v name="POMASS">     63.54600000</v>
   <i type="logical" name="LCORR"> T  </i>
  </separator>
  <i type="logical" name="LREAL_COMPAT"> F  </i>
  <i type="logical" name="GGA_COMPAT"> T  </i>
  <i type="logical" name="LBERRY"> F  </i>
  <i type="int" name="ICORELEVEL">     0</i>
  <i type="logical" name="LDAU"> F  </i>
  <i type="int" name="I_CONSTRAINED_M">     0</i>
 </parameters>
 <atominfo>
  <atoms>      32</atoms>
  <types>       1</types>
  <array name="atoms" >
   <dimension dim="1">ion</dimension>
   <field type="string">element</field>
   <field type="int">atomtype</field>
   <set>
    <rc><c>Cu</c><c>   1</c></rc>
    <rc><c>Cu</c><c>   1</c></rc>
    <rc><c>Cu</c><c>   1</c></rc>
    <rc><c>Cu</c><c>   1</c></rc>
    <rc><c>Cu</c><c>   1</c></rc>
    <rc><c>Cu</c><c>   1</c></rc>
    <rc><c>Cu</c><c>   1</c></rc>
    <rc><c>Cu</c><c>   1</c></rc>
    <rc><c>Cu</c><c>   1</c></rc>
    <rc><c>Cu</c><c>   1</c></rc>
    <rc><c>Cu</c><c>   1</c></rc>
    <rc><c>Cu</c><c>   1</c></rc>
    <rc><c>Cu</c><c>   1</c></rc>
    <rc><c>Cu</c><c>   1</c></rc>
    <rc><c>Cu</c><c>   1</c></rc>
    <rc><c>Cu</c><c>   1</c></rc>
    <rc><c>Cu</c><c>   1</c></rc>
    <rc><c>Cu</c><c>   1</c></rc>
    <rc><c>Cu</c><c>   1</c></rc>
    <rc><c>Cu</c><c>   1</c></rc>
    <rc><c>Cu</c><c>   1</c></rc>
    <rc><c>Cu</c><c>   1</c></rc>
    <rc><c>Cu</c><c>   1</c></rc>
    <rc><c>Cu</c><c>   1</c></rc>
    <rc><c>Cu</c><c>   1</c></rc>
    <rc><c>Cu</c><c>   1</c></rc>
    <rc><c>Cu</c><c>   1</c></rc>
    <rc><c>Cu</c><c>   1</c></rc>
    <rc><c>Cu</c><c>   1</c></rc>
    <rc><c>Cu</c><c>   1</c></rc>
    <rc><c>Cu</c><c>   1</c></rc>
    <rc><c>Cu</c><c>   1</c></rc>
   </set>
  </array>
  <array name="atomtypes" >
   <dimension dim="1">type</dimension>
   <field type="int">atomspertype</field>
   <field type="string">element</field>
   <field>mass</field>
   <field>valence</field>
   <field type="string">pseudopotential</field>
   <set>
    <rc><c>  32</c><c>Cu</c><c>     63.54600000</c><c>     11.00000000</c><c> PAW_PBE Cu 05Jan2001                   </c></rc>
   </set>
  </array>
 </atominfo>
 <structure name="initialpos" >
  <crystal>
   <varray name="basis" >
    <v>       7.05464667      0.00000000      0.00000000</v>
    <v>       0.00000000      7.05464667      0.00000000</v>
    <v>       0.00000000      0.00000000      7.05464667</v>
   </varray>
   <i name="volume">    351.09593582</i>
   <varray name="rec_basis" >
    <v>       0.14175054      0.00000000      0.00000000</v>
    <v>       0.00000000      0.14175054      0.00000000</v>
    <v>       0.00000000      0.00000000      0.14175054</v>
   </varray>
  </crystal>
  <varray name="positions" >
   <v>       0.00141751      0.00000000      0.00000000</v>
   <v>       0.50000000      0.00000000      0.00000000</v>
   <v>       0.00000000      0.50000000      0.00000000</v>
   <v>       0.50000000      0.50000000      0.00000000</v>
   <v>       0.00000000      0.00000000      0.50000000</v>
   <v>       0.50000000      0.00000000      0.50000000</v>
   <v>       0.00000000      0.50000000      0.50000000</v>
   <v>       0.50000000      0.50000000      0.50000000</v>
   <v>       0.25000000      0.25000000      0.00000000</v>
   <v>       0.75000000      0.25000000      0.00000000</v>
   <v>       0.25000000      0.75000000      0.00000000</v>
   <v>       0.75000000      0.75000000      0.00000000</v>
   <v>       0.25000000      0.25000000      0.50000000</v>
   <v>       0.75000000      0.25000000      0.50000000</v>
   <v>       0.25000000      0.75000000      0.50000000</v>
   <v>       0.75000000      0.75000000      0.50000000</v>
   <v>       0.25000000      0.00000000      0.25000000</v>
   <v>       0.75000000      0.00000000      0.25000000</v>
   <v>       0.25000000      0.50000000      0.25000000</v>
   <v>       0.75000000      0.50000000      0.25000000</v>
   <v>       0.25000000      0.00000000      0.75000000</v>
   <v>       0.75000000      0.00000000      0.75000000</v>
   <v>       0.25000000      0.50000000      0.75000000</v>
   <v>       0.75000000      0.50000000      0.75000000</v>
   <v>       0.00000000      0.25000000      0.25000000</v>
   <v>       0.50000000      0.25000000      0.25000000</v>
   <v>       0.00000000      0.75000000      0.25000000</v>
   <v>       0.50000000      0.75000000      0.25000000</v>
   <v>       0.00000000      0.25000000      0.75000000</v>
   <v>       0.50000000      0.25000000      0.75000000</v>
   <v>       0.00000000      0.75000000      0.75000000</v>
   <v>       0.50000000      0.75000000      0.75000000</v>
  </varray>
 </structure>
 <calculation>
  <scstep>
   <time name="dav"> 4885.19 4888.50</time>
   <time name="total"> 4888.19 4891.50</time>
   <energy>
    <i name="alphaZ">   3726.29784981</i>
    <i name="ewald"> -36236.15384449</i>
    <i name="hartreedc">  -9983.75525859</i>
    <i name="XCdc">   1411.79878277</i>
    <i name="pawpsdc">  34625.67335558</i>
    <i name="pawaedc"> -39234.46421604</i>
    <i name="eentropy">     -0.00014586</i>
    <i name="bandstr">   5289.95739844</i>
    <i name="atom">  44511.34040493</i>
    <i name="e_fr_energy">   4110.69432655</i>
    <i name="e_wo_entrp">   4110.69447241</i>
    <i name="e_0_energy">   4110.69439948</i>
   </energy>
  </scstep>
  <scstep>
   <time name="dav"> 4874.28 4877.50</time>
   <time name="total"> 4874.63 4877.87</time>
   <energy>
    <i name="e_fr_energy">    505.70806268</i>
    <i name="e_wo_entrp">    505.70841245</i>
    <i name="e_0_energy">    505.70823756</i>
   </energy>
  </scstep>
  <scstep>
   <time name="dav"> 4870.09 4873.23</time>
   <time name="total"> 4870.45 4873.59</time>
   <energy>
    <i name="e_fr_energy">   -102.60355139</i>
    <i name="e_wo_entrp">   -102.60308312</i>
    <i name="e_0_energy">   -102.60331725</i>
   </energy>
  </scstep>
  <scstep>
   <time name="dav"> 5046.07 5049.44</time>
   <time name="total"> 5046.42 5049.80</time>
   <energy>
    <i name="e_fr_energy">   -145.44001475</i>
    <i name="e_wo_entrp">   -145.43924390</i>
    <i name="e_0_energy">   -145.43962933</i>
   </energy>
  </scstep>
  <scstep>
   <time name="dav"> 5143.07 5146.54</time>
   <time name="total"> 5282.14 5285.71</time>
   <energy>
    <i name="e_fr_energy">   -145.96332577</i>
    <i name="e_wo_entrp">   -145.96259320</i>
    <i name="e_0_energy">   -145.96295948</i>
   </energy>
  </scstep>
  <scstep>
   <time name="dav"> 5220.46 5224.04</time>
   <time name="total"> 5361.77 5365.47</time>
   <energy>
    <i name="e_fr_energy">   -125.60832272</i>
    <i name="e_wo_entrp">   -125.60767158</i>
    <i name="e_0_energy">   -125.60799715</i>
   </energy>
  </scstep>
  <scstep>
   <time name="dav"> 5346.46 5350.13</time>
   <time name="total"> 5487.79 5491.58</time>
   <energy>
    <i name="e_fr_energy">   -117.89294958</i>
    <i name="e_wo_entrp">   -117.89197754</i>
    <i name="e_0_energy">   -117.89246356</i>
   </energy>
  </scstep>
  <scstep>
   <time name="dav"> 5060.82 5064.26</time>
   <time name="total"> 5196.21 5199.76</time>
   <energy>
    <i name="e_fr_energy">   -117.53654053</i>
    <i name="e_wo_entrp">   -117.53562487</i>
    <i name="e_0_energy">   -117.53608270</i>
   </energy>
  </scstep>
  <scstep>
   <time name="dav"> 5608.16 5612.21</time>
   <time name="total"> 5743.72 5747.89</time>
   <energy>
    <i name="e_fr_energy">   -117.47493684</i>
    <i name="e_wo_entrp">   -117.47413363</i>
    <i name="e_0_energy">   -117.47453523</i>
   </energy>
  </scstep>
  <scstep>
   <time name="dav"> 5525.58 5532.45</time>
   <time name="total"> 5664.78 5671.74</time>
   <energy>
    <i name="e_fr_energy">   -117.46366313</i>
    <i name="e_wo_entrp">   -117.46288367</i>
    <i name="e_0_energy">   -117.46327340</i>
   </energy>
  </scstep>
  <scstep>
   <time name="dav"> 5003.09 5012.93</time>
   <time name="total"> 5145.25 5155.37</time>
   <energy>
    <i name="e_fr_energy">   -117.46430212</i>
    <i name="e_wo_entrp">   -117.46352063</i>
    <i name="e_0_energy">   -117.46391138</i>
   </energy>
  </scstep>
  <scstep>
   <time name="dav"> 5252.85 5257.86</time>
   <time name="total"> 5409.69 5414.81</time>
   <energy>
    <i name="e_fr_energy">   -117.46419485</i>
    <i name="e_wo_entrp">   -117.46341184</i>
    <i name="e_0_energy">   -117.46380335</i>
   </energy>
  </scstep>
  <scstep>
   <time name="dav"> 5436.49 5441.66</time>
   <time name="total"> 5623.82 5629.24</time>
   <energy>
    <i name="e_fr_energy">   -117.46418251</i>
    <i name="e_wo_entrp">   -117.46339910</i>
    <i name="e_0_energy">   -117.46379080</i>
   </energy>
  </scstep>
  <scstep>
   <time name="dav"> 5486.82 5489.23</time>
   <time name="total"> 5670.97 5673.48</time>
   <energy>
    <i name="e_fr_energy">   -117.46417699</i>
    <i name="e_wo_entrp">   -117.46339336</i>
    <i name="e_0_energy">   -117.46378518</i>
   </energy>
  </scstep>
  <scstep>
   <time name="dav"> 5302.78 5307.79</time>
   <time name="total"> 5490.60 5495.90</time>
   <energy>
    <i name="e_fr_energy">   -117.46417397</i>
    <i name="e_wo_entrp">   -117.46339018</i>
    <i name="e_0_energy">   -117.46378207</i>
   </energy>
  </scstep>
  <scstep>
   <time name="dav"> 5734.79 5737.17</time>
   <time name="total"> 5898.09 5900.54</time>
   <energy>
    <i name="e_fr_energy">   -117.46417152</i>
    <i name="e_wo_entrp">   -117.46338741</i>
    <i name="e_0_energy">   -117.46377946</i>
   </energy>
  </scstep>
  <scstep>
   <time name="dav"> 5586.91 5592.36</time>
   <time name="total"> 5750.55 5756.22</time>
   <energy>
    <i name="e_fr_energy">   -117.46417904</i>
    <i name="e_wo_entrp">   -117.46339507</i>
    <i name="e_0_energy">   -117.46378706</i>
   </energy>
  </scstep>
  <scstep>
   <time name="dav"> 5364.25 5366.66</time>
   <time name="total"> 5531.11 5533.60</time>
   <energy>
    <i name="e_fr_energy">   -117.46417913</i>
    <i name="e_wo_entrp">   -117.46339515</i>
    <i name="e_0_energy">   -117.46378714</i>
   </energy>
  </scstep>
  <scstep>
   <time name="dav"> 5462.54 5466.13</time>
   <time name="total"> 5625.41 5629.11</time>
   <energy>
    <i name="e_fr_energy">   -117.46417896</i>
    <i name="e_wo_entrp">   -117.46339492</i>
    <i name="e_0_energy">   -117.46378694</i>
   </energy>
  </scstep>
  <scstep>
   <time name="dav"> 4778.56 4781.85</time>
   <time name="total"> 4913.94 4917.33</time>
   <energy>
    <i name="e_fr_energy">   -117.46417934</i>
    <i name="e_wo_entrp">   -117.46339533</i>
    <i name="e_0_energy">   -117.46378734</i>
   </energy>
  </scstep>
  <scstep>
   <time name="dav"> 2759.62 2761.95</time>
   <time name="total"> 2926.13 2928.61</time>
   <energy>
    <i name="e_fr_energy">   -117.46417938</i>
    <i name="e_wo_entrp">   -117.46339537</i>
    <i name="e_0_energy">   -117.46378737</i>
   </energy>
  </scstep>
  <scstep>
   <time name="dav"> 3209.53 3210.94</time>
   <time name="total"> 3361.32 3362.78</time>
   <energy>
    <i name="e_fr_energy">   -117.46417934</i>
    <i name="e_wo_entrp">   -117.46339533</i>
    <i name="e_0_energy">   -117.46378734</i>
   </energy>
  </scstep>
  <scstep>
   <time name="dav"> 3200.60 3201.78</time>
   <time name="total"> 3365.80 3367.05</time>
   <energy>
    <i name="e_fr_energy">   -117.46417936</i>
    <i name="e_wo_entrp">   -117.46339535</i>
    <i name="e_0_energy">   -117.46378735</i>
   </energy>
  </scstep>
  <scstep>
   <time name="dav"> 3406.72 3408.23</time>
   <time name="total"> 3577.14 3578.72</time>
   <energy>
    <i name="e_fr_energy">   -117.46417937</i>
    <i name="e_wo_entrp">   -117.46339536</i>
    <i name="e_0_energy">   -117.46378737</i>
   </energy>
  </scstep>
  <scstep>
   <time name="dav"> 3390.41 3393.64</time>
   <time name="total"> 3561.76 3565.18</time>
   <energy>
    <i name="e_fr_energy">   -117.46417936</i>
    <i name="e_wo_entrp">   -117.46339534</i>
    <i name="e_0_energy">   -117.46378735</i>
   </energy>
  </scstep>
  <scstep>
   <time name="dav"> 3368.69 3370.47</time>
   <time name="total"> 3371.88 3373.66</time>
   <energy>
    <i name="alphaZ">   3726.29784981</i>
    <i name="ewald"> -36236.15384449</i>
    <i name="hartreedc">  -9259.00905717</i>
    <i name="XCdc">   1375.44529878</i>
    <i name="pawpsdc">  35548.98444889</i>
    <i name="pawaedc"> -40194.67112907</i>
    <i name="eentropy">     -0.00078401</i>
    <i name="bandstr">    410.30263298</i>
    <i name="atom">  44511.34040493</i>
    <i name="e_fr_energy">   -117.46417936</i>
    <i name="e_wo_entrp">   -117.46339534</i>
    <i name="e_0_energy">   -117.46378735</i>
   </energy>
  </scstep>
  <structure>
   <crystal>
    <varray name="basis" >
     <v>       7.05464667      0.00000000      0.00000000</v>
     <v>       0.00000000      7.05464667      0.00000000</v>
     <v>       0.00000000      0.00000000      7.05464667</v>
    </varray>
    <i name="volume">    351.09593582</i>
    <varray name="rec_basis" >
     <v>       0.14175054      0.00000000      0.00000000</v>
     <v>       0.00000000      0.14175054      0.00000000</v>
     <v>       0.00000000      0.00000000      0.14175054</v>
    </varray>
   </crystal>
   <varray name="positions" >
    <v>       0.00141751      0.00000000      0.00000000</v>
    <v>       0.50000000      0.00000000      0.00000000</v>
    <v>       0.00000000      0.50000000      0.00000000</v>
    <v>       0.50000000      0.50000000      0.00000000</v>
    <v>       0.00000000      0.00000000      0.50000000</v>
    <v>       0.50000000      0.00000000      0.50000000</v>
    <v>       0.00000000      0.50000000      0.50000000</v>
    <v>       0.50000000      0.50000000      0.50000000</v>
    <v>       0.25000000      0.25000000      0.00000000</v>
    <v>       0.75000000      0.25000000      0.00000000</v>
    <v>       0.25000000      0.75000000      0.00000000</v>
    <v>       0.75000000      0.75000000      0.00000000</v>
    <v>       0.25000000      0.25000000      0.50000000</v>
    <v>       0.75000000      0.25000000      0.50000000</v>
    <v>       0.25000000      0.75000000      0.50000000</v>
    <v>       0.75000000      0.75000000      0.50000000</v>
    <v>       0.25000000      0.00000000      0.25000000</v>
    <v>       0.75000000      0.00000000      0.25000000</v>
    <v>       0.25000000      0.50000000      0.25000000</v>
    <v>       0.75000000      0.50000000      0.25000000</v>
    <v>       0.25000000      0.00000000      0.75000000</v>
    <v>       0.75000000      0.00000000      0.75000000</v>
    <v>       0.25000000      0.50000000      0.75000000</v>
    <v>       0.75000000      0.50000000      0.75000000</v>
    <v>       0.00000000      0.25000000      0.25000000</v>
    <v>       0.50000000      0.25000000      0.25000000</v>
    <v>       0.00000000      0.75000000      0.25000000</v>
    <v>       0.50000000      0.75000000      0.25000000</v>
    <v>       0.00000000      0.25000000      0.75000000</v>
    <v>       0.50000000      0.25000000      0.75000000</v>
    <v>       0.00000000      0.75000000      0.75000000</v>
    <v>       0.50000000      0.75000000      0.75000000</v>
   </varray>
  </structure>
  <varray name="forces" >
   <v>      -0.09531574      0.00000000      0.00000000</v>
   <v>       0.00117869      0.00000000     -0.00000000</v>
   <v>      -0.00039522     -0.00000000      0.00000000</v>
   <v>       0.00031161      0.00000000      0.00000000</v>
   <v>      -0.00039522     -0.00000000      0.00000000</v>
   <v>       0.00031161     -0.00000000     -0.00000000</v>
   <v>      -0.00009002      0.00000000      0.00000000</v>
   <v>      -0.00010900      0.00000000     -0.00000000</v>
   <v>       0.01210758      0.01420165      0.00000000</v>
   <v>       0.01177118     -0.01370838     -0.00000000</v>
   <v>       0.01210758     -0.01420165      0.00000000</v>
   <v>       0.01177118      0.01370838      0.00000000</v>
   <v>       0.00019307      0.00018942      0.00000000</v>
   <v>       0.00019326     -0.00019139     -0.00000000</v>
   <v>       0.00019307     -0.00018942     -0.00000000</v>
   <v>       0.00019326      0.00019139      0.00000000</v>
   <v>       0.01210758      0.00000000      0.01420165</v>
   <v>       0.01177118      0.00000000     -0.01370838</v>
   <v>       0.00019307      0.00000000      0.00018942</v>
   <v>       0.00019326     -0.00000000     -0.00019139</v>
   <v>       0.01210758     -0.00000000     -0.01420165</v>
   <v>       0.01177118     -0.00000000      0.01370838</v>
   <v>       0.00019307      0.00000000     -0.00018942</v>
   <v>       0.00019326     -0.00000000      0.00019139</v>
   <v>      -0.00136355     -0.00003106     -0.00003106</v>
   <v>       0.00072428      0.00000197      0.00000197</v>
   <v>      -0.00136355      0.00003106     -0.00003106</v>
   <v>       0.00072428     -0.00000197      0.00000197</v>
   <v>      -0.00136355     -0.00003106      0.00003106</v>
   <v>       0.00072428      0.00000197     -0.00000197</v>
   <v>      -0.00136355      0.00003106      0.00003106</v>
   <v>       0.00072428     -0.00000197     -0.00000197</v>
  </varray>
  <varray name="stress" >
   <v>     158.37003931     -0.00000000      0.00000000</v>
   <v>      -0.00000000    158.37134664      0.00000000</v>
   <v>       0.00000000      0.00000000    158.37134664</v>
  </varray>
  <energy>
   <i name="e_fr_energy">   -117.46417936</i>
   <i name="e_wo_entrp">   -117.46378735</i>
   <i name="e_0_energy">     -0.00078401</i>
  </energy>
  <eigenvalues>
   <array>
    <dimension dim="1">band</dimension>
    <dimension dim="2">kpoint</dimension>
    <dimension dim="3">spin</dimension>
    <field>eigene</field>
    <field>occ</field>
    <set>
     <set comment="spin 1">
      <set comment="kpoint 1">
       <r>  -5.4740  1.0000</r>
       <r>  -2.5889  1.0000</r>
       <r>  -2.5856  1.0000</r>
       <r>  -2.5856  1.0000</r>
       <r>  -2.5856  1.0000</r>
       <r>  -2.5856  1.0000</r>
       <r>  -2.5822  1.0000</r>
       <r>  -1.0755  1.0000</r>
       <r>  -1.0755  1.0000</r>
       <r>  -1.0755  1.0000</r>
       <r>  -1.0755  1.0000</r>
       <r>  -0.9011  1.0000</r>
       <r>  -0.9011  1.0000</r>
       <r>  -0.9011  1.0000</r>
       <r>  -0.6301  1.0000</r>
       <r>  -0.6279  1.0000</r>
       <r>  -0.6279  1.0000</r>
       <r>  -0.6267  1.0000</r>
       <r>  -0.6264  1.0000</r>
       <r>  -0.6264  1.0000</r>
       <r>  -0.6264  1.0000</r>
       <r>  -0.6264  1.0000</r>
       <r>  -0.6261  1.0000</r>
       <r>  -0.6249  1.0000</r>
       <r>  -0.6249  1.0000</r>
       <r>  -0.6227  1.0000</r>
       <r>  -0.3991  1.0000</r>
       <r>  -0.3991  1.0000</r>
       <r>  -0.3991  1.0000</r>
       <r>  -0.0946  1.0000</r>
       <r>  -0.0923  1.0000</r>
       <r>  -0.0923  1.0000</r>
       <r>  -0.0923  1.0000</r>
       <r>  -0.0923  1.0000</r>
       <r>  -0.0901  1.0000</r>
       <r>   0.3550  1.0000</r>
       <r>   0.3571  1.0000</r>
       <r>   0.3571  1.0000</r>
       <r>   0.3571  1.0000</r>
       <r>   0.3571  1.0000</r>
       <r>   0.3591  1.0000</r>
       <r>   0.5879  1.0000</r>
       <r>   0.5882  1.0000</r>
       <r>   0.5882  1.0000</r>
       <r>   0.5905  1.0000</r>
       <r>   0.5905  1.0000</r>
       <r>   0.5906  1.0000</r>
       <r>   0.5906  1.0000</r>
       <r>   0.5907  1.0000</r>
       <r>   0.5908  1.0000</r>
       <r>   0.5908  1.0000</r>
       <r>   0.5922  1.0000</r>
       <r>   0.5922  1.0000</r>
       <r>   0.5934  1.0000</r>
       <r>   0.5948  1.0000</r>
       <r>   0.5948  1.0000</r>
       <r>   0.5953  1.0000</r>
       <r>   0.5953  1.0000</r>
       <r>   0.5953  1.0000</r>
       <r>   0.5953  1.0000</r>
       <r>   0.5954  1.0000</r>
       <r>   0.5954  1.0000</r>
       <r>   0.5968  1.0000</r>
       <r>   0.5968  1.0000</r>
       <r>   0.6000  1.0000</r>
       <r>   0.8201  1.0000</r>
       <r>   0.8230  1.0000</r>
       <r>   0.8230  1.0000</r>
       <r>   0.8233  1.0000</r>
       <r>   0.8236  1.0000</r>
       <r>   0.8236  1.0000</r>
       <r>   0.8236  1.0000</r>
       <r>   0.8237  1.0000</r>
       <r>   0.8239  1.0000</r>
       <r>   0.8243  1.0000</r>
       <r>   0.8243  1.0000</r>
       <r>   0.8271  1.0000</r>
       <r>   1.1252  1.0000</r>
       <r>   1.1252  1.0000</r>
       <r>   1.1252  1.0000</r>
       <r>   1.1252  1.0000</r>
       <r>   1.1252  1.0000</r>
       <r>   1.1252  1.0000</r>
       <r>   1.1252  1.0000</r>
       <r>   1.1252  1.0000</r>
       <r>   1.1610  1.0000</r>
       <r>   1.1610  1.0000</r>
       <r>   1.1610  1.0000</r>
       <r>   1.5757  1.0000</r>
       <r>   1.5776  1.0000</r>
       <r>   1.5777  1.0000</r>
       <r>   1.5777  1.0000</r>
       <r>   1.5777  1.0000</r>
       <r>   1.5796  1.0000</r>
       <r>   1.7191  1.0000</r>
       <r>   1.7197  1.0000</r>
       <r>   1.7206  1.0000</r>
       <r>   1.7206  1.0000</r>
       <r>   1.7212  1.0000</r>
       <r>   1.7212  1.0000</r>
       <r>   1.7212  1.0000</r>
       <r>   1.7212  1.0000</r>
       <r>   1.7218  1.0000</r>
       <r>   1.7218  1.0000</r>
       <r>   1.7228  1.0000</r>
       <r>   1.7232  1.0000</r>
       <r>   1.8973  1.0000</r>
       <r>   1.8973  1.0000</r>
       <r>   1.8994  1.0000</r>
       <r>   1.8994  1.0000</r>
       <r>   1.8996  1.0000</r>
       <r>   1.8996  1.0000</r>
       <r>   1.8996  1.0000</r>
       <r>   1.8996  1.0000</r>
       <r>   1.8999  1.0000</r>
       <r>   1.8999  1.0000</r>
       <r>   1.9018  1.0000</r>
       <r>   1.9018  1.0000</r>
       <r>   2.0399  1.0000</r>
       <r>   2.0412  1.0000</r>
       <r>   2.0412  1.0000</r>
       <r>   2.0412  1.0000</r>
       <r>   2.0413  1.0000</r>
       <r>   2.0425  1.0000</r>
       <r>   2.0781  1.0000</r>
       <r>   2.0781  1.0000</r>
       <r>   2.0798  1.0000</r>
       <r>   2.0802  1.0000</r>
       <r>   2.0802  1.0000</r>
       <r>   2.0803  1.0000</r>
       <r>   2.0803  1.0000</r>
       <r>   2.0803  1.0000</r>
       <r>   2.0804  1.0000</r>
       <r>   2.0809  1.0000</r>
       <r>   2.0827  1.0000</r>
       <r>   2.0827  1.0000</r>
       <r>   2.0892  1.0000</r>
       <r>   2.0894  1.0000</r>
       <r>   2.3924  1.0000</r>
       <r>   2.3934  1.0000</r>
       <r>   2.3934  1.0000</r>
       <r>   2.3934  1.0000</r>
       <r>   2.3934  1.0000</r>
       <r>   2.3945  1.0000</r>
       <r>   2.7048  1.0000</r>
       <r>   2.7048  1.0000</r>
       <r>   2.7048  1.0000</r>
       <r>   2.7206  1.0000</r>
       <r>   2.7206  1.0000</r>
       <r>   2.7206  1.0000</r>
       <r>   2.7206  1.0000</r>
       <r>   2.7206  1.0000</r>
       <r>   2.7206  1.0000</r>
       <r>   2.7206  1.0000</r>
       <r>   2.7206  1.0000</r>
       <r>   2.8773  1.0000</r>
       <r>   2.8778  1.0000</r>
       <r>   2.8778  1.0000</r>
       <r>   2.8778  1.0000</r>
       <r>   2.8778  1.0000</r>
       <r>   2.8778  1.0000</r>
       <r>   2.8786  1.0000</r>
       <r>   2.8787  1.0000</r>
       <r>   2.8787  1.0000</r>
       <r>   2.8787  1.0000</r>
       <r>   2.8787  1.0000</r>
       <r>   2.8792  1.0000</r>
       <r>   3.2344  1.0000</r>
       <r>   3.2345  1.0000</r>
       <r>   3.2345  1.0000</r>
       <r>   3.2345  1.0000</r>
       <r>   4.1605  1.0000</r>
       <r>   4.1606  1.0000</r>
       <r>   4.1606  1.0000</r>
       <r>   4.1617  1.0000</r>
       <r>   4.1620  1.0000</r>
       <r>   4.1620  1.0000</r>
       <r>   4.1620  1.0000</r>
       <r>   4.1620  1.0000</r>
       <r>   4.1623  1.0000</r>
       <r>   4.1634  1.0000</r>
       <r>   4.1634  1.0000</r>
       <r>   4.1635  1.0000</r>
       <r>   5.9109  0.0000</r>
       <r>   5.9109  0.0000</r>
       <r>   5.9110  0.0000</r>
       <r>   8.5887  0.0000</r>
       <r>   8.5887  0.0000</r>
       <r>   8.5887  0.0000</r>
       <r>   8.5887  0.0000</r>
       <r>  10.9552  0.0000</r>
       <r>  10.9552  0.0000</r>
       <r>  10.9589  0.0000</r>
       <r>  10.9589  0.0000</r>
       <r>  10.9594  0.0000</r>
       <r>  10.9594  0.0000</r>
       <r>  10.9594  0.0000</r>
       <r>  10.9595  0.0000</r>
       <r>  10.9599  0.0000</r>
       <r>  10.9599  0.0000</r>
       <r>  10.9636  0.0000</r>
       <r>  10.9636  0.0000</r>
       <r>  12.1022  0.0000</r>
       <r>  12.1022  0.0000</r>
       <r>  12.1022  0.0000</r>
       <r>  13.1408  0.0000</r>
       <r>  13.1437  0.0000</r>
       <r>  13.1437  0.0000</r>
       <r>  13.1437  0.0000</r>
       <r>  13.1437  0.0000</r>
       <r>  13.1465  0.0000</r>
       <r>  14.0090  0.0000</r>
      </set>
      <set comment="kpoint 2">
       <r>  -5.4517  1.0000</r>
       <r>  -2.9855  1.0000</r>
       <r>  -2.5676  1.0000</r>
       <r>  -2.5676  1.0000</r>
       <r>  -2.5676  1.0000</r>
       <r>  -2.5676  1.0000</r>
       <r>  -2.1932  1.0000</r>
       <r>  -1.0700  1.0000</r>
       <r>  -1.0700  1.0000</r>
       <r>  -1.0700  1.0000</r>
       <r>  -1.0700  1.0000</r>
       <r>  -0.9005  1.0000</r>
       <r>  -0.8903  1.0000</r>
       <r>  -0.8902  1.0000</r>
       <r>  -0.8440  1.0000</r>
       <r>  -0.8440  1.0000</r>
       <r>  -0.8440  1.0000</r>
       <r>  -0.8439  1.0000</r>
       <r>  -0.6384  1.0000</r>
       <r>  -0.6383  1.0000</r>
       <r>  -0.6383  1.0000</r>
       <r>  -0.6383  1.0000</r>
       <r>  -0.4286  1.0000</r>
       <r>  -0.4286  1.0000</r>
       <r>  -0.4286  1.0000</r>
       <r>  -0.4286  1.0000</r>
       <r>  -0.3928  1.0000</r>
       <r>  -0.3924  1.0000</r>
       <r>  -0.3924  1.0000</r>
       <r>  -0.1111  1.0000</r>
       <r>  -0.1109  1.0000</r>
       <r>  -0.0837  1.0000</r>
       <r>  -0.0837  1.0000</r>
       <r>  -0.0837  1.0000</r>
       <r>  -0.0836  1.0000</r>
       <r>   0.2557  1.0000</r>
       <r>   0.3597  1.0000</r>
       <r>   0.3598  1.0000</r>
       <r>   0.3598  1.0000</r>
       <r>   0.3598  1.0000</r>
       <r>   0.4293  1.0000</r>
       <r>   0.4293  1.0000</r>
       <r>   0.4592  1.0000</r>
       <r>   0.5762  1.0000</r>
       <r>   0.5768  1.0000</r>
       <r>   0.5768  1.0000</r>
       <r>   0.5769  1.0000</r>
       <r>   0.5817  1.0000</r>
       <r>   0.5817  1.0000</r>
       <r>   0.5817  1.0000</r>
       <r>   0.5817  1.0000</r>
       <r>   0.5915  1.0000</r>
       <r>   0.5916  1.0000</r>
       <r>   0.5916  1.0000</r>
       <r>   0.5916  1.0000</r>
       <r>   0.6090  1.0000</r>
       <r>   0.6090  1.0000</r>
       <r>   0.6090  1.0000</r>
       <r>   0.6093  1.0000</r>
       <r>   0.6205  1.0000</r>
       <r>   0.6206  1.0000</r>
       <r>   0.6206  1.0000</r>
       <r>   0.6210  1.0000</r>
       <r>   0.7417  1.0000</r>
       <r>   0.7417  1.0000</r>
       <r>   0.7417  1.0000</r>
       <r>   0.7417  1.0000</r>
       <r>   0.7666  1.0000</r>
       <r>   0.7666  1.0000</r>
       <r>   0.8298  1.0000</r>
       <r>   0.8298  1.0000</r>
       <r>   0.8298  1.0000</r>
       <r>   0.8298  1.0000</r>
       <r>   0.8914  1.0000</r>
       <r>   0.8914  1.0000</r>
       <r>   0.8914  1.0000</r>
       <r>   0.8915  1.0000</r>
       <r>   1.1205  1.0000</r>
       <r>   1.1205  1.0000</r>
       <r>   1.1205  1.0000</r>
       <r>   1.1205  1.0000</r>
       <r>   1.1313  1.0000</r>
       <r>   1.1313  1.0000</r>
       <r>   1.1313  1.0000</r>
       <r>   1.1313  1.0000</r>
       <r>   1.1539  1.0000</r>
       <r>   1.1666  1.0000</r>
       <r>   1.1666  1.0000</r>
       <r>   1.5440  1.0000</r>
       <r>   1.5440  1.0000</r>
       <r>   1.5440  1.0000</r>
       <r>   1.5440  1.0000</r>
       <r>   1.5860  1.0000</r>
       <r>   1.6151  1.0000</r>
       <r>   1.6948  1.0000</r>
       <r>   1.6949  1.0000</r>
       <r>   1.6949  1.0000</r>
       <r>   1.6949  1.0000</r>
       <r>   1.7192  1.0000</r>
       <r>   1.7192  1.0000</r>
       <r>   1.7192  1.0000</r>
       <r>   1.7192  1.0000</r>
       <r>   1.7487  1.0000</r>
       <r>   1.7487  1.0000</r>
       <r>   1.7488  1.0000</r>
       <r>   1.7488  1.0000</r>
       <r>   1.7922  1.0000</r>
       <r>   1.7922  1.0000</r>
       <r>   1.8995  1.0000</r>
       <r>   1.8995  1.0000</r>
       <r>   1.8995  1.0000</r>
       <r>   1.8996  1.0000</r>
       <r>   1.9283  1.0000</r>
       <r>   1.9283  1.0000</r>
       <r>   1.9283  1.0000</r>
       <r>   1.9283  1.0000</r>
       <r>   2.0108  1.0000</r>
       <r>   2.0108  1.0000</r>
       <r>   2.0292  1.0000</r>
       <r>   2.0292  1.0000</r>
       <r>   2.0292  1.0000</r>
       <r>   2.0292  1.0000</r>
       <r>   2.0412  1.0000</r>
       <r>   2.0413  1.0000</r>
       <r>   2.0414  1.0000</r>
       <r>   2.0414  1.0000</r>
       <r>   2.0575  1.0000</r>
       <r>   2.0576  1.0000</r>
       <r>   2.0828  1.0000</r>
       <r>   2.0917  1.0000</r>
       <r>   2.1073  1.0000</r>
       <r>   2.1074  1.0000</r>
       <r>   2.1074  1.0000</r>
       <r>   2.1075  1.0000</r>
       <r>   2.1420  1.0000</r>
       <r>   2.1420  1.0000</r>
       <r>   2.1421  1.0000</r>
       <r>   2.1421  1.0000</r>
       <r>   2.3533  1.0000</r>
       <r>   2.4004  1.0000</r>
       <r>   2.4004  1.0000</r>
       <r>   2.4004  1.0000</r>
       <r>   2.4004  1.0000</r>
       <r>   2.4337  1.0000</r>
       <r>   2.6067  1.0000</r>
       <r>   2.6068  1.0000</r>
       <r>   2.6068  1.0000</r>
       <r>   2.6068  1.0000</r>
       <r>   2.6965  1.0000</r>
       <r>   2.6965  1.0000</r>
       <r>   2.7021  1.0000</r>
       <r>   2.7137  1.0000</r>
       <r>   2.7137  1.0000</r>
       <r>   2.7137  1.0000</r>
       <r>   2.7138  1.0000</r>
       <r>   2.8322  1.0000</r>
       <r>   2.8322  1.0000</r>
       <r>   2.8680  1.0000</r>
       <r>   2.8680  1.0000</r>
       <r>   2.8680  1.0000</r>
       <r>   2.8680  1.0000</r>
       <r>   2.8680  1.0000</r>
       <r>   2.8680  1.0000</r>
       <r>   2.8773  1.0000</r>
       <r>   2.8778  1.0000</r>
       <r>   2.8787  1.0000</r>
       <r>   2.8792  1.0000</r>
       <r>   3.3272  1.0000</r>
       <r>   3.3272  1.0000</r>
       <r>   3.3272  1.0000</r>
       <r>   3.3272  1.0000</r>
       <r>   3.8727  1.0000</r>
       <r>   3.8727  1.0000</r>
       <r>   3.8727  1.0000</r>
       <r>   3.8727  1.0000</r>
       <r>   4.1582  1.0000</r>
       <r>   4.1582  1.0000</r>
       <r>   4.1582  1.0000</r>
       <r>   4.1582  1.0000</r>
       <r>   4.4977  0.0411</r>
       <r>   4.4977  0.0411</r>
       <r>   4.4977  0.0411</r>
       <r>   4.4977  0.0410</r>
       <r>   5.7699  0.0000</r>
       <r>   5.9761  0.0000</r>
       <r>   5.9761  0.0000</r>
       <r>   8.6480  0.0000</r>
       <r>   8.6480  0.0000</r>
       <r>   8.6480  0.0000</r>
       <r>   8.6480  0.0000</r>
       <r>  10.3494  0.0000</r>
       <r>  10.3494  0.0000</r>
       <r>  10.6439  0.0000</r>
       <r>  10.6439  0.0000</r>
       <r>  10.6439  0.0000</r>
       <r>  10.6439  0.0000</r>
       <r>  10.9899  0.0000</r>
       <r>  10.9899  0.0000</r>
       <r>  10.9899  0.0000</r>
       <r>  10.9899  0.0000</r>
       <r>  11.5894  0.0000</r>
       <r>  11.5894  0.0000</r>
       <r>  12.1095  0.0000</r>
       <r>  12.1095  0.0000</r>
       <r>  12.2859  0.0000</r>
       <r>  13.0746  0.0000</r>
       <r>  13.0746  0.0000</r>
       <r>  13.3373  0.0000</r>
       <r>  13.3373  0.0000</r>
       <r>  13.3373  0.0000</r>
       <r>  13.3373  0.0000</r>
       <r>  14.1366  0.0000</r>
      </set>
      <set comment="kpoint 3">
       <r>  -5.3849  1.0000</r>
       <r>  -3.3774  1.0000</r>
       <r>  -2.5139  1.0000</r>
       <r>  -2.5139  1.0000</r>
       <r>  -2.5139  1.0000</r>
       <r>  -2.5139  1.0000</r>
       <r>  -1.8292  1.0000</r>
       <r>  -1.0751  1.0000</r>
       <r>  -1.0750  1.0000</r>
       <r>  -1.0750  1.0000</r>
       <r>  -1.0750  1.0000</r>
       <r>  -1.0535  1.0000</r>
       <r>  -1.0535  1.0000</r>
       <r>  -1.0535  1.0000</r>
       <r>  -1.0534  1.0000</r>
       <r>  -0.8998  1.0000</r>
       <r>  -0.8580  1.0000</r>
       <r>  -0.8579  1.0000</r>
       <r>  -0.6716  1.0000</r>
       <r>  -0.6715  1.0000</r>
       <r>  -0.6715  1.0000</r>
       <r>  -0.6715  1.0000</r>
       <r>  -0.3741  1.0000</r>
       <r>  -0.3725  1.0000</r>
       <r>  -0.3725  1.0000</r>
       <r>  -0.2543  1.0000</r>
       <r>  -0.2543  1.0000</r>
       <r>  -0.2543  1.0000</r>
       <r>  -0.2543  1.0000</r>
       <r>  -0.1639  1.0000</r>
       <r>  -0.1639  1.0000</r>
       <r>  -0.0583  1.0000</r>
       <r>  -0.0583  1.0000</r>
       <r>  -0.0583  1.0000</r>
       <r>  -0.0583  1.0000</r>
       <r>   0.1569  1.0000</r>
       <r>   0.2827  1.0000</r>
       <r>   0.2827  1.0000</r>
       <r>   0.3678  1.0000</r>
       <r>   0.3678  1.0000</r>
       <r>   0.3678  1.0000</r>
       <r>   0.3679  1.0000</r>
       <r>   0.5540  1.0000</r>
       <r>   0.5542  1.0000</r>
       <r>   0.5542  1.0000</r>
       <r>   0.5543  1.0000</r>
       <r>   0.5556  1.0000</r>
       <r>   0.5556  1.0000</r>
       <r>   0.5557  1.0000</r>
       <r>   0.5557  1.0000</r>
       <r>   0.5603  1.0000</r>
       <r>   0.5942  1.0000</r>
       <r>   0.5943  1.0000</r>
       <r>   0.5943  1.0000</r>
       <r>   0.5943  1.0000</r>
       <r>   0.6179  1.0000</r>
       <r>   0.6179  1.0000</r>
       <r>   0.6179  1.0000</r>
       <r>   0.6183  1.0000</r>
       <r>   0.6488  1.0000</r>
       <r>   0.6489  1.0000</r>
       <r>   0.6489  1.0000</r>
       <r>   0.6489  1.0000</r>
       <r>   0.6934  1.0000</r>
       <r>   0.6934  1.0000</r>
       <r>   0.6934  1.0000</r>
       <r>   0.6935  1.0000</r>
       <r>   0.8480  1.0000</r>
       <r>   0.8480  1.0000</r>
       <r>   0.8480  1.0000</r>
       <r>   0.8480  1.0000</r>
       <r>   0.9465  1.0000</r>
       <r>   0.9465  1.0000</r>
       <r>   0.9465  1.0000</r>
       <r>   0.9466  1.0000</r>
       <r>   0.9566  1.0000</r>
       <r>   0.9566  1.0000</r>
       <r>   1.1066  1.0000</r>
       <r>   1.1066  1.0000</r>
       <r>   1.1066  1.0000</r>
       <r>   1.1067  1.0000</r>
       <r>   1.1328  1.0000</r>
       <r>   1.1495  1.0000</r>
       <r>   1.1495  1.0000</r>
       <r>   1.1495  1.0000</r>
       <r>   1.1496  1.0000</r>
       <r>   1.1834  1.0000</r>
       <r>   1.1834  1.0000</r>
       <r>   1.4693  1.0000</r>
       <r>   1.4693  1.0000</r>
       <r>   1.4693  1.0000</r>
       <r>   1.4693  1.0000</r>
       <r>   1.6239  1.0000</r>
       <r>   1.6327  1.0000</r>
       <r>   1.6327  1.0000</r>
       <r>   1.6327  1.0000</r>
       <r>   1.6327  1.0000</r>
       <r>   1.6903  1.0000</r>
       <r>   1.6903  1.0000</r>
       <r>   1.7190  1.0000</r>
       <r>   1.7435  1.0000</r>
       <r>   1.7436  1.0000</r>
       <r>   1.7436  1.0000</r>
       <r>   1.7438  1.0000</r>
       <r>   1.7948  1.0000</r>
       <r>   1.7948  1.0000</r>
       <r>   1.7948  1.0000</r>
       <r>   1.7949  1.0000</r>
       <r>   1.8995  1.0000</r>
       <r>   1.8995  1.0000</r>
       <r>   1.8995  1.0000</r>
       <r>   1.8995  1.0000</r>
       <r>   1.9826  1.0000</r>
       <r>   1.9826  1.0000</r>
       <r>   1.9827  1.0000</r>
       <r>   1.9828  1.0000</r>
       <r>   1.9884  1.0000</r>
       <r>   1.9884  1.0000</r>
       <r>   1.9886  1.0000</r>
       <r>   1.9886  1.0000</r>
       <r>   2.0407  1.0000</r>
       <r>   2.0407  1.0000</r>
       <r>   2.0407  1.0000</r>
       <r>   2.0407  1.0000</r>
       <r>   2.0636  1.0000</r>
       <r>   2.0993  1.0000</r>
       <r>   2.1034  1.0000</r>
       <r>   2.1035  1.0000</r>
       <r>   2.1244  1.0000</r>
       <r>   2.1244  1.0000</r>
       <r>   2.1717  1.0000</r>
       <r>   2.1717  1.0000</r>
       <r>   2.1717  1.0000</r>
       <r>   2.1718  1.0000</r>
       <r>   2.2136  1.0000</r>
       <r>   2.2136  1.0000</r>
       <r>   2.2136  1.0000</r>
       <r>   2.2136  1.0000</r>
       <r>   2.3140  1.0000</r>
       <r>   2.3771  1.0000</r>
       <r>   2.3771  1.0000</r>
       <r>   2.3771  1.0000</r>
       <r>   2.3772  1.0000</r>
       <r>   2.4268  1.0000</r>
       <r>   2.4268  1.0000</r>
       <r>   2.4268  1.0000</r>
       <r>   2.4268  1.0000</r>
       <r>   2.4733  1.0000</r>
       <r>   2.6716  1.0000</r>
       <r>   2.6716  1.0000</r>
       <r>   2.6933  1.0000</r>
       <r>   2.6933  1.0000</r>
       <r>   2.6933  1.0000</r>
       <r>   2.6933  1.0000</r>
       <r>   2.6941  1.0000</r>
       <r>   2.7058  1.0000</r>
       <r>   2.7058  1.0000</r>
       <r>   2.8368  1.0000</r>
       <r>   2.8368  1.0000</r>
       <r>   2.8368  1.0000</r>
       <r>   2.8368  1.0000</r>
       <r>   2.8388  1.0000</r>
       <r>   2.8388  1.0000</r>
       <r>   2.8773  1.0000</r>
       <r>   2.8779  1.0000</r>
       <r>   2.8786  1.0000</r>
       <r>   2.8792  1.0000</r>
       <r>   3.4951  1.0000</r>
       <r>   3.4952  1.0000</r>
       <r>   3.4952  1.0000</r>
       <r>   3.4952  1.0000</r>
       <r>   3.6211  1.0000</r>
       <r>   3.6211  1.0000</r>
       <r>   3.6211  1.0000</r>
       <r>   3.6211  1.0000</r>
       <r>   4.1465  1.0000</r>
       <r>   4.1465  1.0000</r>
       <r>   4.1465  1.0000</r>
       <r>   4.1465  1.0000</r>
       <r>   4.8878  0.0000</r>
       <r>   4.8878  0.0000</r>
       <r>   4.8878  0.0000</r>
       <r>   4.8878  0.0000</r>
       <r>   5.3916  0.0000</r>
       <r>   6.1610  0.0000</r>
       <r>   6.1610  0.0000</r>
       <r>   8.8241  0.0000</r>
       <r>   8.8241  0.0000</r>
       <r>   8.8241  0.0000</r>
       <r>   8.8241  0.0000</r>
       <r>   9.7606  0.0000</r>
       <r>   9.7606  0.0000</r>
       <r>   9.9772  0.0000</r>
       <r>   9.9772  0.0000</r>
       <r>   9.9772  0.0000</r>
       <r>   9.9773  0.0000</r>
       <r>  11.0808  0.0000</r>
       <r>  11.0808  0.0000</r>
       <r>  11.0808  0.0000</r>
       <r>  11.0808  0.0000</r>
       <r>  12.1315  0.0000</r>
       <r>  12.1315  0.0000</r>
       <r>  12.2381  0.0000</r>
       <r>  12.2381  0.0000</r>
       <r>  12.7929  0.0000</r>
       <r>  12.9271  0.0000</r>
       <r>  12.9271  0.0000</r>
       <r>  13.4405  0.0000</r>
       <r>  13.4406  0.0000</r>
       <r>  13.4406  0.0000</r>
       <r>  13.4408  0.0000</r>
       <r>  13.5648  0.0000</r>
      </set>
      <set comment="kpoint 4">
       <r>  -5.2739  1.0000</r>
       <r>  -3.7499  1.0000</r>
       <r>  -2.4254  1.0000</r>
       <r>  -2.4253  1.0000</r>
       <r>  -2.4253  1.0000</r>
       <r>  -2.4253  1.0000</r>
       <r>  -1.5168  1.0000</r>
       <r>  -1.3114  1.0000</r>
       <r>  -1.3113  1.0000</r>
       <r>  -1.3113  1.0000</r>
       <r>  -1.3113  1.0000</r>
       <r>  -1.0265  1.0000</r>
       <r>  -1.0265  1.0000</r>
       <r>  -1.0265  1.0000</r>
       <r>  -1.0265  1.0000</r>
       <r>  -0.9019  1.0000</r>
       <r>  -0.8054  1.0000</r>
       <r>  -0.8054  1.0000</r>
       <r>  -0.7198  1.0000</r>
       <r>  -0.7197  1.0000</r>
       <r>  -0.7197  1.0000</r>
       <r>  -0.7197  1.0000</r>
       <r>  -0.3431  1.0000</r>
       <r>  -0.3392  1.0000</r>
       <r>  -0.3392  1.0000</r>
       <r>  -0.2436  1.0000</r>
       <r>  -0.2435  1.0000</r>
       <r>  -0.1044  1.0000</r>
       <r>  -0.1044  1.0000</r>
       <r>  -0.1044  1.0000</r>
       <r>  -0.1044  1.0000</r>
       <r>  -0.0174  1.0000</r>
       <r>  -0.0174  1.0000</r>
       <r>  -0.0174  1.0000</r>
       <r>  -0.0174  1.0000</r>
       <r>   0.0623  1.0000</r>
       <r>   0.1509  1.0000</r>
       <r>   0.1509  1.0000</r>
       <r>   0.3809  1.0000</r>
       <r>   0.3810  1.0000</r>
       <r>   0.3810  1.0000</r>
       <r>   0.3810  1.0000</r>
       <r>   0.5141  1.0000</r>
       <r>   0.5141  1.0000</r>
       <r>   0.5141  1.0000</r>
       <r>   0.5141  1.0000</r>
       <r>   0.5284  1.0000</r>
       <r>   0.5285  1.0000</r>
       <r>   0.5285  1.0000</r>
       <r>   0.5285  1.0000</r>
       <r>   0.5508  1.0000</r>
       <r>   0.5508  1.0000</r>
       <r>   0.5508  1.0000</r>
       <r>   0.5508  1.0000</r>
       <r>   0.5984  1.0000</r>
       <r>   0.5986  1.0000</r>
       <r>   0.5986  1.0000</r>
       <r>   0.5986  1.0000</r>
       <r>   0.6222  1.0000</r>
       <r>   0.6223  1.0000</r>
       <r>   0.6223  1.0000</r>
       <r>   0.6225  1.0000</r>
       <r>   0.6590  1.0000</r>
       <r>   0.8043  1.0000</r>
       <r>   0.8043  1.0000</r>
       <r>   0.8043  1.0000</r>
       <r>   0.8043  1.0000</r>
       <r>   0.8807  1.0000</r>
       <r>   0.8807  1.0000</r>
       <r>   0.8807  1.0000</r>
       <r>   0.8807  1.0000</r>
       <r>   0.9942  1.0000</r>
       <r>   0.9943  1.0000</r>
       <r>   0.9943  1.0000</r>
       <r>   0.9943  1.0000</r>
       <r>   1.0842  1.0000</r>
       <r>   1.0842  1.0000</r>
       <r>   1.0843  1.0000</r>
       <r>   1.0843  1.0000</r>
       <r>   1.0981  1.0000</r>
       <r>   1.1602  1.0000</r>
       <r>   1.1602  1.0000</r>
       <r>   1.1795  1.0000</r>
       <r>   1.1796  1.0000</r>
       <r>   1.1796  1.0000</r>
       <r>   1.1796  1.0000</r>
       <r>   1.2112  1.0000</r>
       <r>   1.2112  1.0000</r>
       <r>   1.3836  1.0000</r>
       <r>   1.3837  1.0000</r>
       <r>   1.3837  1.0000</r>
       <r>   1.3837  1.0000</r>
       <r>   1.5567  1.0000</r>
       <r>   1.5568  1.0000</r>
       <r>   1.5568  1.0000</r>
       <r>   1.5568  1.0000</r>
       <r>   1.5950  1.0000</r>
       <r>   1.5950  1.0000</r>
       <r>   1.6794  1.0000</r>
       <r>   1.7884  1.0000</r>
       <r>   1.7885  1.0000</r>
       <r>   1.7885  1.0000</r>
       <r>   1.7885  1.0000</r>
       <r>   1.8497  1.0000</r>
       <r>   1.8497  1.0000</r>
       <r>   1.8497  1.0000</r>
       <r>   1.8497  1.0000</r>
       <r>   1.8997  1.0000</r>
       <r>   1.8997  1.0000</r>
       <r>   1.8997  1.0000</r>
       <r>   1.8998  1.0000</r>
       <r>   1.9128  1.0000</r>
       <r>   1.9574  1.0000</r>
       <r>   1.9574  1.0000</r>
       <r>   1.9574  1.0000</r>
       <r>   1.9574  1.0000</r>
       <r>   2.0214  1.0000</r>
       <r>   2.0215  1.0000</r>
       <r>   2.0215  1.0000</r>
       <r>   2.0215  1.0000</r>
       <r>   2.0322  1.0000</r>
       <r>   2.0377  1.0000</r>
       <r>   2.0377  1.0000</r>
       <r>   2.0378  1.0000</r>
       <r>   2.0378  1.0000</r>
       <r>   2.1121  1.0000</r>
       <r>   2.1183  1.0000</r>
       <r>   2.1183  1.0000</r>
       <r>   2.1183  1.0000</r>
       <r>   2.1183  1.0000</r>
       <r>   2.1718  1.0000</r>
       <r>   2.1718  1.0000</r>
       <r>   2.2381  1.0000</r>
       <r>   2.2381  1.0000</r>
       <r>   2.2512  1.0000</r>
       <r>   2.2512  1.0000</r>
       <r>   2.2512  1.0000</r>
       <r>   2.2512  1.0000</r>
       <r>   2.2763  1.0000</r>
       <r>   2.2936  1.0000</r>
       <r>   2.2936  1.0000</r>
       <r>   2.2936  1.0000</r>
       <r>   2.2936  1.0000</r>
       <r>   2.4847  1.0000</r>
       <r>   2.4847  1.0000</r>
       <r>   2.4847  1.0000</r>
       <r>   2.4847  1.0000</r>
       <r>   2.5117  1.0000</r>
       <r>   2.5225  1.0000</r>
       <r>   2.5225  1.0000</r>
       <r>   2.6309  1.0000</r>
       <r>   2.6309  1.0000</r>
       <r>   2.6597  1.0000</r>
       <r>   2.6597  1.0000</r>
       <r>   2.6597  1.0000</r>
       <r>   2.6597  1.0000</r>
       <r>   2.6808  1.0000</r>
       <r>   2.7868  1.0000</r>
       <r>   2.7868  1.0000</r>
       <r>   2.7868  1.0000</r>
       <r>   2.7868  1.0000</r>
       <r>   2.7913  1.0000</r>
       <r>   2.7913  1.0000</r>
       <r>   2.8773  1.0000</r>
       <r>   2.8779  1.0000</r>
       <r>   2.8786  1.0000</r>
       <r>   2.8792  1.0000</r>
       <r>   3.3990  1.0000</r>
       <r>   3.3990  1.0000</r>
       <r>   3.3990  1.0000</r>
       <r>   3.3990  1.0000</r>
       <r>   3.6568  1.0000</r>
       <r>   3.6568  1.0000</r>
       <r>   3.6568  1.0000</r>
       <r>   3.6568  1.0000</r>
       <r>   4.1257  1.0000</r>
       <r>   4.1257  1.0000</r>
       <r>   4.1257  1.0000</r>
       <r>   4.1257  1.0000</r>
       <r>   4.8675  0.0000</r>
       <r>   5.3379  0.0000</r>
       <r>   5.3379  0.0000</r>
       <r>   5.3379  0.0000</r>
       <r>   5.3379  0.0000</r>
       <r>   6.4418  0.0000</r>
       <r>   6.4418  0.0000</r>
       <r>   9.1119  0.0000</r>
       <r>   9.1119  0.0000</r>
       <r>   9.1119  0.0000</r>
       <r>   9.1120  0.0000</r>
       <r>   9.1944  0.0000</r>
       <r>   9.1944  0.0000</r>
       <r>   9.2232  0.0000</r>
       <r>   9.2232  0.0000</r>
       <r>   9.2232  0.0000</r>
       <r>   9.2232  0.0000</r>
       <r>  11.2303  0.0000</r>
       <r>  11.2303  0.0000</r>
       <r>  11.2303  0.0000</r>
       <r>  11.2303  0.0000</r>
       <r>  12.1689  0.0000</r>
       <r>  12.1689  0.0000</r>
       <r>  12.6524  0.0000</r>
       <r>  12.6524  0.0000</r>
       <r>  12.6524  0.0000</r>
       <r>  12.6524  0.0000</r>
       <r>  12.7674  0.0000</r>
       <r>  12.7674  0.0000</r>
       <r>  12.9041  0.0000</r>
       <r>  12.9041  0.0000</r>
       <r>  13.1732  0.0000</r>
       <r>  13.1732  0.0000</r>
      </set>
      <set comment="kpoint 5">
       <r>  -5.1196  1.0000</r>
       <r>  -4.0953  1.0000</r>
       <r>  -2.3036  1.0000</r>
       <r>  -2.3035  1.0000</r>
       <r>  -2.3035  1.0000</r>
       <r>  -2.3035  1.0000</r>
       <r>  -1.5445  1.0000</r>
       <r>  -1.5445  1.0000</r>
       <r>  -1.5445  1.0000</r>
       <r>  -1.5445  1.0000</r>
       <r>  -1.2739  1.0000</r>
       <r>  -0.9898  1.0000</r>
       <r>  -0.9898  1.0000</r>
       <r>  -0.9898  1.0000</r>
       <r>  -0.9898  1.0000</r>
       <r>  -0.9127  1.0000</r>
       <r>  -0.7761  1.0000</r>
       <r>  -0.7761  1.0000</r>
       <r>  -0.7761  1.0000</r>
       <r>  -0.7761  1.0000</r>
       <r>  -0.7345  1.0000</r>
       <r>  -0.7345  1.0000</r>
       <r>  -0.3405  1.0000</r>
       <r>  -0.3404  1.0000</r>
       <r>  -0.3004  1.0000</r>
       <r>  -0.2924  1.0000</r>
       <r>  -0.2924  1.0000</r>
       <r>  -0.0267  1.0000</r>
       <r>   0.0200  1.0000</r>
       <r>   0.0200  1.0000</r>
       <r>   0.0200  1.0000</r>
       <r>   0.0200  1.0000</r>
       <r>   0.0336  1.0000</r>
       <r>   0.0336  1.0000</r>
       <r>   0.0363  1.0000</r>
       <r>   0.0363  1.0000</r>
       <r>   0.0364  1.0000</r>
       <r>   0.0364  1.0000</r>
       <r>   0.3987  1.0000</r>
       <r>   0.3988  1.0000</r>
       <r>   0.3988  1.0000</r>
       <r>   0.3988  1.0000</r>
       <r>   0.4555  1.0000</r>
       <r>   0.4557  1.0000</r>
       <r>   0.4557  1.0000</r>
       <r>   0.4557  1.0000</r>
       <r>   0.4603  1.0000</r>
       <r>   0.4603  1.0000</r>
       <r>   0.4603  1.0000</r>
       <r>   0.4605  1.0000</r>
       <r>   0.5008  1.0000</r>
       <r>   0.5009  1.0000</r>
       <r>   0.5009  1.0000</r>
       <r>   0.5009  1.0000</r>
       <r>   0.6037  1.0000</r>
       <r>   0.6040  1.0000</r>
       <r>   0.6040  1.0000</r>
       <r>   0.6040  1.0000</r>
       <r>   0.6227  1.0000</r>
       <r>   0.6227  1.0000</r>
       <r>   0.6227  1.0000</r>
       <r>   0.6231  1.0000</r>
       <r>   0.7528  1.0000</r>
       <r>   0.8938  1.0000</r>
       <r>   0.8938  1.0000</r>
       <r>   0.8938  1.0000</r>
       <r>   0.8938  1.0000</r>
       <r>   0.9790  1.0000</r>
       <r>   0.9790  1.0000</r>
       <r>   0.9790  1.0000</r>
       <r>   0.9790  1.0000</r>
       <r>   1.0413  1.0000</r>
       <r>   1.0414  1.0000</r>
       <r>   1.0414  1.0000</r>
       <r>   1.0414  1.0000</r>
       <r>   1.0504  1.0000</r>
       <r>   1.0545  1.0000</r>
       <r>   1.0545  1.0000</r>
       <r>   1.0545  1.0000</r>
       <r>   1.0546  1.0000</r>
       <r>   1.2208  1.0000</r>
       <r>   1.2208  1.0000</r>
       <r>   1.2208  1.0000</r>
       <r>   1.2209  1.0000</r>
       <r>   1.2499  1.0000</r>
       <r>   1.2499  1.0000</r>
       <r>   1.2995  1.0000</r>
       <r>   1.2995  1.0000</r>
       <r>   1.2995  1.0000</r>
       <r>   1.2995  1.0000</r>
       <r>   1.3761  1.0000</r>
       <r>   1.3761  1.0000</r>
       <r>   1.4784  1.0000</r>
       <r>   1.4785  1.0000</r>
       <r>   1.4785  1.0000</r>
       <r>   1.4785  1.0000</r>
       <r>   1.5075  1.0000</r>
       <r>   1.5075  1.0000</r>
       <r>   1.7440  1.0000</r>
       <r>   1.8452  1.0000</r>
       <r>   1.8453  1.0000</r>
       <r>   1.8453  1.0000</r>
       <r>   1.8453  1.0000</r>
       <r>   1.8567  1.0000</r>
       <r>   1.8568  1.0000</r>
       <r>   1.8568  1.0000</r>
       <r>   1.8568  1.0000</r>
       <r>   1.9009  1.0000</r>
       <r>   1.9009  1.0000</r>
       <r>   1.9009  1.0000</r>
       <r>   1.9010  1.0000</r>
       <r>   1.9041  1.0000</r>
       <r>   1.9041  1.0000</r>
       <r>   1.9041  1.0000</r>
       <r>   1.9041  1.0000</r>
       <r>   1.9349  1.0000</r>
       <r>   1.9350  1.0000</r>
       <r>   1.9350  1.0000</r>
       <r>   1.9350  1.0000</r>
       <r>   1.9896  1.0000</r>
       <r>   2.0269  1.0000</r>
       <r>   2.0271  1.0000</r>
       <r>   2.0272  1.0000</r>
       <r>   2.0272  1.0000</r>
       <r>   2.0299  1.0000</r>
       <r>   2.0299  1.0000</r>
       <r>   2.0299  1.0000</r>
       <r>   2.0301  1.0000</r>
       <r>   2.1296  1.0000</r>
       <r>   2.2120  1.0000</r>
       <r>   2.2404  1.0000</r>
       <r>   2.2540  1.0000</r>
       <r>   2.2540  1.0000</r>
       <r>   2.3058  1.0000</r>
       <r>   2.3058  1.0000</r>
       <r>   2.3341  1.0000</r>
       <r>   2.3341  1.0000</r>
       <r>   2.3341  1.0000</r>
       <r>   2.3341  1.0000</r>
       <r>   2.3498  1.0000</r>
       <r>   2.3498  1.0000</r>
       <r>   2.3797  1.0000</r>
       <r>   2.3797  1.0000</r>
       <r>   2.3797  1.0000</r>
       <r>   2.3797  1.0000</r>
       <r>   2.5482  1.0000</r>
       <r>   2.5752  1.0000</r>
       <r>   2.5753  1.0000</r>
       <r>   2.5800  1.0000</r>
       <r>   2.5800  1.0000</r>
       <r>   2.5800  1.0000</r>
       <r>   2.5801  1.0000</r>
       <r>   2.6138  1.0000</r>
       <r>   2.6138  1.0000</r>
       <r>   2.6138  1.0000</r>
       <r>   2.6139  1.0000</r>
       <r>   2.6627  1.0000</r>
       <r>   2.7213  1.0000</r>
       <r>   2.7213  1.0000</r>
       <r>   2.7213  1.0000</r>
       <r>   2.7213  1.0000</r>
       <r>   2.7271  1.0000</r>
       <r>   2.7271  1.0000</r>
       <r>   2.8774  1.0000</r>
       <r>   2.8780  1.0000</r>
       <r>   2.8785  1.0000</r>
       <r>   2.8792  1.0000</r>
       <r>   3.1996  1.0000</r>
       <r>   3.1996  1.0000</r>
       <r>   3.1996  1.0000</r>
       <r>   3.1996  1.0000</r>
       <r>   3.7934  1.0000</r>
       <r>   3.7934  1.0000</r>
       <r>   3.7934  1.0000</r>
       <r>   3.7934  1.0000</r>
       <r>   4.0939  1.0000</r>
       <r>   4.0940  1.0000</r>
       <r>   4.0940  1.0000</r>
       <r>   4.0940  1.0000</r>
       <r>   4.2785  1.0000</r>
       <r>   5.8505  0.0000</r>
       <r>   5.8505  0.0000</r>
       <r>   5.8505  0.0000</r>
       <r>   5.8505  0.0000</r>
       <r>   6.7947  0.0000</r>
       <r>   6.7947  0.0000</r>
       <r>   8.4674  0.0000</r>
       <r>   8.4674  0.0000</r>
       <r>   8.4674  0.0000</r>
       <r>   8.4675  0.0000</r>
       <r>   8.6525  0.0000</r>
       <r>   8.6525  0.0000</r>
       <r>   9.5034  0.0000</r>
       <r>   9.5034  0.0000</r>
       <r>   9.5034  0.0000</r>
       <r>   9.5034  0.0000</r>
       <r>  11.4354  0.0000</r>
       <r>  11.4354  0.0000</r>
       <r>  11.4354  0.0000</r>
       <r>  11.4354  0.0000</r>
       <r>  11.8988  0.0000</r>
       <r>  11.8988  0.0000</r>
       <r>  11.8988  0.0000</r>
       <r>  11.8988  0.0000</r>
       <r>  12.2223  0.0000</r>
       <r>  12.2223  0.0000</r>
       <r>  12.6197  0.0000</r>
       <r>  12.6197  0.0000</r>
       <r>  12.7422  0.0000</r>
       <r>  12.7422  0.0000</r>
       <r>  12.7422  0.0000</r>
       <r>  12.7422  0.0000</r>
      </set>
      <set comment="kpoint 6">
       <r>  -4.9228  1.0000</r>
       <r>  -4.4083  1.0000</r>
       <r>  -2.1508  1.0000</r>
       <r>  -2.1508  1.0000</r>
       <r>  -2.1508  1.0000</r>
       <r>  -2.1508  1.0000</r>
       <r>  -1.7664  1.0000</r>
       <r>  -1.7664  1.0000</r>
       <r>  -1.7664  1.0000</r>
       <r>  -1.7664  1.0000</r>
       <r>  -1.1047  1.0000</r>
       <r>  -0.9447  1.0000</r>
       <r>  -0.9445  1.0000</r>
       <r>  -0.9445  1.0000</r>
       <r>  -0.9445  1.0000</r>
       <r>  -0.9407  1.0000</r>
       <r>  -0.8350  1.0000</r>
       <r>  -0.8350  1.0000</r>
       <r>  -0.8350  1.0000</r>
       <r>  -0.8350  1.0000</r>
       <r>  -0.6481  1.0000</r>
       <r>  -0.6481  1.0000</r>
       <r>  -0.4453  1.0000</r>
       <r>  -0.4453  1.0000</r>
       <r>  -0.2465  1.0000</r>
       <r>  -0.2319  1.0000</r>
       <r>  -0.2319  1.0000</r>
       <r>  -0.1086  1.0000</r>
       <r>  -0.0691  1.0000</r>
       <r>  -0.0691  1.0000</r>
       <r>   0.0958  1.0000</r>
       <r>   0.0958  1.0000</r>
       <r>   0.0958  1.0000</r>
       <r>   0.0959  1.0000</r>
       <r>   0.1112  1.0000</r>
       <r>   0.1112  1.0000</r>
       <r>   0.1113  1.0000</r>
       <r>   0.1113  1.0000</r>
       <r>   0.3787  1.0000</r>
       <r>   0.3787  1.0000</r>
       <r>   0.3787  1.0000</r>
       <r>   0.3787  1.0000</r>
       <r>   0.4007  1.0000</r>
       <r>   0.4007  1.0000</r>
       <r>   0.4007  1.0000</r>
       <r>   0.4008  1.0000</r>
       <r>   0.4205  1.0000</r>
       <r>   0.4206  1.0000</r>
       <r>   0.4206  1.0000</r>
       <r>   0.4206  1.0000</r>
       <r>   0.4728  1.0000</r>
       <r>   0.4729  1.0000</r>
       <r>   0.4729  1.0000</r>
       <r>   0.4729  1.0000</r>
       <r>   0.6093  1.0000</r>
       <r>   0.6098  1.0000</r>
       <r>   0.6098  1.0000</r>
       <r>   0.6099  1.0000</r>
       <r>   0.6202  1.0000</r>
       <r>   0.6202  1.0000</r>
       <r>   0.6202  1.0000</r>
       <r>   0.6208  1.0000</r>
       <r>   0.8405  1.0000</r>
       <r>   0.9383  1.0000</r>
       <r>   0.9383  1.0000</r>
       <r>   0.9383  1.0000</r>
       <r>   0.9383  1.0000</r>
       <r>   0.9908  1.0000</r>
       <r>   1.0190  1.0000</r>
       <r>   1.0190  1.0000</r>
       <r>   1.0190  1.0000</r>
       <r>   1.0190  1.0000</r>
       <r>   1.0932  1.0000</r>
       <r>   1.0932  1.0000</r>
       <r>   1.0932  1.0000</r>
       <r>   1.0933  1.0000</r>
       <r>   1.1586  1.0000</r>
       <r>   1.1586  1.0000</r>
       <r>   1.1586  1.0000</r>
       <r>   1.1586  1.0000</r>
       <r>   1.2219  1.0000</r>
       <r>   1.2219  1.0000</r>
       <r>   1.2219  1.0000</r>
       <r>   1.2219  1.0000</r>
       <r>   1.2727  1.0000</r>
       <r>   1.2727  1.0000</r>
       <r>   1.2727  1.0000</r>
       <r>   1.2727  1.0000</r>
       <r>   1.2993  1.0000</r>
       <r>   1.2993  1.0000</r>
       <r>   1.4032  1.0000</r>
       <r>   1.4032  1.0000</r>
       <r>   1.4032  1.0000</r>
       <r>   1.4032  1.0000</r>
       <r>   1.4286  1.0000</r>
       <r>   1.4286  1.0000</r>
       <r>   1.6025  1.0000</r>
       <r>   1.6025  1.0000</r>
       <r>   1.6047  1.0000</r>
       <r>   1.6048  1.0000</r>
       <r>   1.6048  1.0000</r>
       <r>   1.6048  1.0000</r>
       <r>   1.8114  1.0000</r>
       <r>   1.9039  1.0000</r>
[...]
       <r>   1.3463  1.0000</r>
       <r>   1.3464  1.0000</r>
       <r>   1.3464  1.0000</r>
       <r>   1.3464  1.0000</r>
       <r>   1.3676  1.0000</r>
       <r>   1.3676  1.0000</r>
       <r>   1.3676  1.0000</r>
       <r>   1.3676  1.0000</r>
       <r>   1.7161  1.0000</r>
       <r>   1.7161  1.0000</r>
       <r>   1.7161  1.0000</r>
       <r>   1.7161  1.0000</r>
       <r>   1.7694  1.0000</r>
       <r>   1.7694  1.0000</r>
       <r>   1.7698  1.0000</r>
       <r>   1.7698  1.0000</r>
       <r>   1.7698  1.0000</r>
       <r>   1.7699  1.0000</r>
       <r>   1.7702  1.0000</r>
       <r>   1.7702  1.0000</r>
       <r>   2.0277  1.0000</r>
       <r>   2.0287  1.0000</r>
       <r>   2.0287  1.0000</r>
       <r>   2.0290  1.0000</r>
       <r>   2.0338  1.0000</r>
       <r>   2.0338  1.0000</r>
       <r>   2.0343  1.0000</r>
       <r>   2.0343  1.0000</r>
       <r>   2.0343  1.0000</r>
       <r>   2.0350  1.0000</r>
       <r>   2.0350  1.0000</r>
       <r>   2.0350  1.0000</r>
       <r>   2.0393  1.0000</r>
       <r>   2.0394  1.0000</r>
       <r>   2.0394  1.0000</r>
       <r>   2.0398  1.0000</r>
       <r>   2.2046  1.0000</r>
       <r>   2.2047  1.0000</r>
       <r>   2.2047  1.0000</r>
       <r>   2.2047  1.0000</r>
       <r>   2.2189  1.0000</r>
       <r>   2.2189  1.0000</r>
       <r>   2.2189  1.0000</r>
       <r>   2.2190  1.0000</r>
       <r>   2.3343  1.0000</r>
       <r>   2.3343  1.0000</r>
       <r>   2.3343  1.0000</r>
       <r>   2.3343  1.0000</r>
       <r>   2.7287  1.0000</r>
       <r>   2.7287  1.0000</r>
       <r>   2.7289  1.0000</r>
       <r>   2.7289  1.0000</r>
       <r>   2.7289  1.0000</r>
       <r>   2.7289  1.0000</r>
       <r>   2.7290  1.0000</r>
       <r>   2.7290  1.0000</r>
       <r>   2.7390  1.0000</r>
       <r>   2.7390  1.0000</r>
       <r>   2.7390  1.0000</r>
       <r>   2.7390  1.0000</r>
       <r>   2.7515  1.0000</r>
       <r>   2.7515  1.0000</r>
       <r>   2.7517  1.0000</r>
       <r>   2.7517  1.0000</r>
       <r>   2.7517  1.0000</r>
       <r>   2.7517  1.0000</r>
       <r>   2.7519  1.0000</r>
       <r>   2.7519  1.0000</r>
       <r>   2.7531  1.0000</r>
       <r>   2.7531  1.0000</r>
       <r>   2.7531  1.0000</r>
       <r>   2.7531  1.0000</r>
       <r>   4.3041  1.0000</r>
       <r>   4.3041  1.0000</r>
       <r>   4.3041  1.0000</r>
       <r>   4.3041  1.0000</r>
       <r>   5.0590  0.0000</r>
       <r>   5.0590  0.0000</r>
       <r>   5.0595  0.0000</r>
       <r>   5.0595  0.0000</r>
       <r>   5.0595  0.0000</r>
       <r>   5.0595  0.0000</r>
       <r>   5.0600  0.0000</r>
       <r>   5.0600  0.0000</r>
       <r>   5.9253  0.0000</r>
       <r>   5.9253  0.0000</r>
       <r>   5.9266  0.0000</r>
       <r>   5.9266  0.0000</r>
       <r>   5.9266  0.0000</r>
       <r>   5.9266  0.0000</r>
       <r>   5.9279  0.0000</r>
       <r>   5.9279  0.0000</r>
       <r>   6.7936  0.0000</r>
       <r>   6.7936  0.0000</r>
       <r>   6.7937  0.0000</r>
       <r>   6.7937  0.0000</r>
       <r>  10.3683  0.0000</r>
       <r>  10.3683  0.0000</r>
       <r>  10.3694  0.0000</r>
       <r>  10.3694  0.0000</r>
       <r>  10.3694  0.0000</r>
       <r>  10.3694  0.0000</r>
       <r>  10.3705  0.0000</r>
       <r>  10.3705  0.0000</r>
       <r>  11.0753  0.0000</r>
       <r>  11.0753  0.0000</r>
       <r>  11.0753  0.0000</r>
       <r>  11.0753  0.0000</r>
       <r>  12.2336  0.0000</r>
       <r>  12.2336  0.0000</r>
       <r>  12.2336  0.0000</r>
       <r>  12.2336  0.0000</r>
       <r>  13.0001  0.0000</r>
       <r>  13.0005  0.0000</r>
       <r>  13.0006  0.0000</r>
       <r>  13.0009  0.0000</r>
      </set>
      <set comment="kpoint 195">
       <r>  -3.4527  1.0000</r>
       <r>  -3.4527  1.0000</r>
       <r>  -3.4527  1.0000</r>
       <r>  -3.4527  1.0000</r>
       <r>  -3.0153  1.0000</r>
       <r>  -3.0153  1.0000</r>
       <r>  -3.0153  1.0000</r>
       <r>  -3.0153  1.0000</r>
       <r>  -0.4888  1.0000</r>
       <r>  -0.4887  1.0000</r>
       <r>  -0.4887  1.0000</r>
       <r>  -0.4887  1.0000</r>
       <r>  -0.4300  1.0000</r>
       <r>  -0.4300  1.0000</r>
       <r>  -0.4297  1.0000</r>
       <r>  -0.4297  1.0000</r>
       <r>  -0.4297  1.0000</r>
       <r>  -0.4297  1.0000</r>
       <r>  -0.4293  1.0000</r>
       <r>  -0.4293  1.0000</r>
       <r>  -0.3513  1.0000</r>
       <r>  -0.3513  1.0000</r>
       <r>  -0.3508  1.0000</r>
       <r>  -0.3507  1.0000</r>
       <r>  -0.3506  1.0000</r>
       <r>  -0.3506  1.0000</r>
       <r>  -0.3500  1.0000</r>
       <r>  -0.3500  1.0000</r>
       <r>  -0.3230  1.0000</r>
       <r>  -0.3230  1.0000</r>
       <r>  -0.3230  1.0000</r>
       <r>  -0.3228  1.0000</r>
       <r>   0.1467  1.0000</r>
       <r>   0.1469  1.0000</r>
       <r>   0.1470  1.0000</r>
       <r>   0.1470  1.0000</r>
       <r>   0.1553  1.0000</r>
       <r>   0.1553  1.0000</r>
       <r>   0.1559  1.0000</r>
       <r>   0.1559  1.0000</r>
       <r>   0.1559  1.0000</r>
       <r>   0.1561  1.0000</r>
       <r>   0.1565  1.0000</r>
       <r>   0.1565  1.0000</r>
       <r>   0.2893  1.0000</r>
       <r>   0.2893  1.0000</r>
       <r>   0.2897  1.0000</r>
       <r>   0.2898  1.0000</r>
       <r>   0.2898  1.0000</r>
       <r>   0.2898  1.0000</r>
       <r>   0.2903  1.0000</r>
       <r>   0.2903  1.0000</r>
       <r>   0.3023  1.0000</r>
       <r>   0.3023  1.0000</r>
       <r>   0.3024  1.0000</r>
       <r>   0.3025  1.0000</r>
       <r>   0.8694  1.0000</r>
       <r>   0.8705  1.0000</r>
       <r>   0.8705  1.0000</r>
       <r>   0.8706  1.0000</r>
       <r>   0.8746  1.0000</r>
       <r>   0.8746  1.0000</r>
       <r>   0.8747  1.0000</r>
       <r>   0.8757  1.0000</r>
       <r>   1.1328  1.0000</r>
       <r>   1.1328  1.0000</r>
       <r>   1.1328  1.0000</r>
       <r>   1.1329  1.0000</r>
       <r>   1.1383  1.0000</r>
       <r>   1.1383  1.0000</r>
       <r>   1.1396  1.0000</r>
       <r>   1.1396  1.0000</r>
       <r>   1.1396  1.0000</r>
       <r>   1.1396  1.0000</r>
       <r>   1.1410  1.0000</r>
       <r>   1.1410  1.0000</r>
       <r>   1.2312  1.0000</r>
       <r>   1.2312  1.0000</r>
       <r>   1.2323  1.0000</r>
       <r>   1.2323  1.0000</r>
       <r>   1.2323  1.0000</r>
       <r>   1.2324  1.0000</r>
       <r>   1.2334  1.0000</r>
       <r>   1.2334  1.0000</r>
       <r>   1.2471  1.0000</r>
       <r>   1.2471  1.0000</r>
       <r>   1.2471  1.0000</r>
       <r>   1.2471  1.0000</r>
       <r>   1.3261  1.0000</r>
       <r>   1.3261  1.0000</r>
       <r>   1.3262  1.0000</r>
       <r>   1.3262  1.0000</r>
       <r>   1.3326  1.0000</r>
       <r>   1.3327  1.0000</r>
       <r>   1.3327  1.0000</r>
       <r>   1.3327  1.0000</r>
       <r>   1.3423  1.0000</r>
       <r>   1.3423  1.0000</r>
       <r>   1.3423  1.0000</r>
       <r>   1.3424  1.0000</r>
       <r>   1.3486  1.0000</r>
       <r>   1.3487  1.0000</r>
       <r>   1.3487  1.0000</r>
       <r>   1.3487  1.0000</r>
       <r>   1.7952  1.0000</r>
       <r>   1.7952  1.0000</r>
       <r>   1.7952  1.0000</r>
       <r>   1.7953  1.0000</r>
       <r>   1.8180  1.0000</r>
       <r>   1.8180  1.0000</r>
       <r>   1.8185  1.0000</r>
       <r>   1.8185  1.0000</r>
       <r>   1.8185  1.0000</r>
       <r>   1.8185  1.0000</r>
       <r>   1.8190  1.0000</r>
       <r>   1.8190  1.0000</r>
       <r>   1.9480  1.0000</r>
       <r>   1.9480  1.0000</r>
       <r>   1.9486  1.0000</r>
       <r>   1.9486  1.0000</r>
       <r>   1.9486  1.0000</r>
       <r>   1.9486  1.0000</r>
       <r>   1.9492  1.0000</r>
       <r>   1.9492  1.0000</r>
       <r>   1.9594  1.0000</r>
       <r>   1.9594  1.0000</r>
       <r>   1.9594  1.0000</r>
       <r>   1.9594  1.0000</r>
       <r>   2.1021  1.0000</r>
       <r>   2.1021  1.0000</r>
       <r>   2.1021  1.0000</r>
       <r>   2.1021  1.0000</r>
       <r>   2.1780  1.0000</r>
       <r>   2.1781  1.0000</r>
       <r>   2.1781  1.0000</r>
       <r>   2.1781  1.0000</r>
       <r>   2.1956  1.0000</r>
       <r>   2.1956  1.0000</r>
       <r>   2.1956  1.0000</r>
       <r>   2.1956  1.0000</r>
       <r>   2.2569  1.0000</r>
       <r>   2.2569  1.0000</r>
       <r>   2.2569  1.0000</r>
       <r>   2.2570  1.0000</r>
       <r>   2.7513  1.0000</r>
       <r>   2.7513  1.0000</r>
       <r>   2.7514  1.0000</r>
       <r>   2.7514  1.0000</r>
       <r>   2.7514  1.0000</r>
       <r>   2.7514  1.0000</r>
       <r>   2.7515  1.0000</r>
       <r>   2.7515  1.0000</r>
       <r>   2.7567  1.0000</r>
       <r>   2.7567  1.0000</r>
       <r>   2.7567  1.0000</r>
       <r>   2.7567  1.0000</r>
       <r>   2.7646  1.0000</r>
       <r>   2.7646  1.0000</r>
       <r>   2.7646  1.0000</r>
       <r>   2.7647  1.0000</r>
       <r>   2.7670  1.0000</r>
       <r>   2.7670  1.0000</r>
       <r>   2.7670  1.0000</r>
       <r>   2.7670  1.0000</r>
       <r>   2.7671  1.0000</r>
       <r>   2.7671  1.0000</r>
       <r>   2.7672  1.0000</r>
       <r>   2.7672  1.0000</r>
       <r>   4.8497  0.0000</r>
       <r>   4.8497  0.0000</r>
       <r>   4.8497  0.0000</r>
       <r>   4.8497  0.0000</r>
       <r>   5.2421  0.0000</r>
       <r>   5.2421  0.0000</r>
       <r>   5.2428  0.0000</r>
       <r>   5.2428  0.0000</r>
       <r>   5.2428  0.0000</r>
       <r>   5.2428  0.0000</r>
       <r>   5.2435  0.0000</r>
       <r>   5.2435  0.0000</r>
       <r>   5.6827  0.0000</r>
       <r>   5.6827  0.0000</r>
       <r>   5.6837  0.0000</r>
       <r>   5.6837  0.0000</r>
       <r>   5.6837  0.0000</r>
       <r>   5.6837  0.0000</r>
       <r>   5.6848  0.0000</r>
       <r>   5.6848  0.0000</r>
       <r>   6.1054  0.0000</r>
       <r>   6.1054  0.0000</r>
       <r>   6.1054  0.0000</r>
       <r>   6.1054  0.0000</r>
       <r>  10.9430  0.0000</r>
       <r>  10.9430  0.0000</r>
       <r>  10.9439  0.0000</r>
       <r>  10.9439  0.0000</r>
       <r>  10.9439  0.0000</r>
       <r>  10.9440  0.0000</r>
       <r>  10.9449  0.0000</r>
       <r>  10.9449  0.0000</r>
       <r>  11.3082  0.0000</r>
       <r>  11.3082  0.0000</r>
       <r>  11.3082  0.0000</r>
       <r>  11.3082  0.0000</r>
       <r>  11.8877  0.0000</r>
       <r>  11.8877  0.0000</r>
       <r>  11.8877  0.0000</r>
       <r>  11.8877  0.0000</r>
       <r>  12.2659  0.0000</r>
       <r>  12.2664  0.0000</r>
       <r>  12.2666  0.0000</r>
       <r>  12.2670  0.0000</r>
      </set>
      <set comment="kpoint 196">
       <r>  -3.2538  1.0000</r>
       <r>  -3.2500  1.0000</r>
       <r>  -3.2500  1.0000</r>
       <r>  -3.2493  1.0000</r>
       <r>  -3.2491  1.0000</r>
       <r>  -3.2484  1.0000</r>
       <r>  -3.2484  1.0000</r>
       <r>  -3.2446  1.0000</r>
       <r>  -0.3926  1.0000</r>
       <r>  -0.3910  1.0000</r>
       <r>  -0.3910  1.0000</r>
       <r>  -0.3902  1.0000</r>
       <r>  -0.3902  1.0000</r>
       <r>  -0.3899  1.0000</r>
       <r>  -0.3888  1.0000</r>
       <r>  -0.3888  1.0000</r>
       <r>  -0.3887  1.0000</r>
       <r>  -0.3886  1.0000</r>
       <r>  -0.3886  1.0000</r>
       <r>  -0.3886  1.0000</r>
       <r>  -0.3884  1.0000</r>
       <r>  -0.3884  1.0000</r>
       <r>  -0.3884  1.0000</r>
       <r>  -0.3883  1.0000</r>
       <r>  -0.3883  1.0000</r>
       <r>  -0.3883  1.0000</r>
       <r>  -0.3872  1.0000</r>
       <r>  -0.3869  1.0000</r>
       <r>  -0.3869  1.0000</r>
       <r>  -0.3861  1.0000</r>
       <r>  -0.3861  1.0000</r>
       <r>  -0.3845  1.0000</r>
       <r>   0.2155  1.0000</r>
       <r>   0.2159  1.0000</r>
       <r>   0.2180  1.0000</r>
       <r>   0.2180  1.0000</r>
       <r>   0.2186  1.0000</r>
       <r>   0.2190  1.0000</r>
       <r>   0.2190  1.0000</r>
       <r>   0.2190  1.0000</r>
       <r>   0.2191  1.0000</r>
       <r>   0.2192  1.0000</r>
       <r>   0.2192  1.0000</r>
       <r>   0.2192  1.0000</r>
       <r>   0.2194  1.0000</r>
       <r>   0.2194  1.0000</r>
       <r>   0.2194  1.0000</r>
       <r>   0.2195  1.0000</r>
       <r>   0.2196  1.0000</r>
       <r>   0.2196  1.0000</r>
       <r>   0.2196  1.0000</r>
       <r>   0.2200  1.0000</r>
       <r>   0.2206  1.0000</r>
       <r>   0.2206  1.0000</r>
       <r>   0.2226  1.0000</r>
       <r>   0.2231  1.0000</r>
       <r>   0.8731  1.0000</r>
       <r>   0.8755  1.0000</r>
       <r>   0.8755  1.0000</r>
       <r>   0.8755  1.0000</r>
       <r>   0.8756  1.0000</r>
       <r>   0.8756  1.0000</r>
       <r>   0.8756  1.0000</r>
       <r>   0.8779  1.0000</r>
       <r>   1.1828  1.0000</r>
       <r>   1.1828  1.0000</r>
       <r>   1.1836  1.0000</r>
       <r>   1.1839  1.0000</r>
       <r>   1.1848  1.0000</r>
       <r>   1.1859  1.0000</r>
       <r>   1.1859  1.0000</r>
       <r>   1.1859  1.0000</r>
       <r>   1.1860  1.0000</r>
       <r>   1.1860  1.0000</r>
       <r>   1.1860  1.0000</r>
       <r>   1.1861  1.0000</r>
       <r>   1.1862  1.0000</r>
       <r>   1.1862  1.0000</r>
       <r>   1.1863  1.0000</r>
       <r>   1.1863  1.0000</r>
       <r>   1.1863  1.0000</r>
       <r>   1.1863  1.0000</r>
       <r>   1.1864  1.0000</r>
       <r>   1.1874  1.0000</r>
       <r>   1.1883  1.0000</r>
       <r>   1.1887  1.0000</r>
       <r>   1.1894  1.0000</r>
       <r>   1.1894  1.0000</r>
       <r>   1.3351  1.0000</r>
       <r>   1.3351  1.0000</r>
       <r>   1.3355  1.0000</r>
       <r>   1.3358  1.0000</r>
       <r>   1.3362  1.0000</r>
       <r>   1.3362  1.0000</r>
       <r>   1.3363  1.0000</r>
       <r>   1.3363  1.0000</r>
       <r>   1.3367  1.0000</r>
       <r>   1.3367  1.0000</r>
       <r>   1.3368  1.0000</r>
       <r>   1.3369  1.0000</r>
       <r>   1.3373  1.0000</r>
       <r>   1.3375  1.0000</r>
       <r>   1.3379  1.0000</r>
       <r>   1.3379  1.0000</r>
       <r>   1.8735  1.0000</r>
       <r>   1.8745  1.0000</r>
       <r>   1.8745  1.0000</r>
       <r>   1.8764  1.0000</r>
       <r>   1.8766  1.0000</r>
       <r>   1.8766  1.0000</r>
       <r>   1.8767  1.0000</r>
       <r>   1.8768  1.0000</r>
       <r>   1.8770  1.0000</r>
       <r>   1.8770  1.0000</r>
       <r>   1.8770  1.0000</r>
       <r>   1.8771  1.0000</r>
       <r>   1.8772  1.0000</r>
       <r>   1.8772  1.0000</r>
       <r>   1.8772  1.0000</r>
       <r>   1.8772  1.0000</r>
       <r>   1.8774  1.0000</r>
       <r>   1.8776  1.0000</r>
       <r>   1.8777  1.0000</r>
       <r>   1.8777  1.0000</r>
       <r>   1.8778  1.0000</r>
       <r>   1.8797  1.0000</r>
       <r>   1.8797  1.0000</r>
       <r>   1.8807  1.0000</r>
       <r>   2.1763  1.0000</r>
       <r>   2.1777  1.0000</r>
       <r>   2.1778  1.0000</r>
       <r>   2.1778  1.0000</r>
       <r>   2.1784  1.0000</r>
       <r>   2.1784  1.0000</r>
       <r>   2.1787  1.0000</r>
       <r>   2.1788  1.0000</r>
       <r>   2.1789  1.0000</r>
       <r>   2.1790  1.0000</r>
       <r>   2.1793  1.0000</r>
       <r>   2.1793  1.0000</r>
       <r>   2.1800  1.0000</r>
       <r>   2.1800  1.0000</r>
       <r>   2.1800  1.0000</r>
       <r>   2.1814  1.0000</r>
       <r>   2.7650  1.0000</r>
       <r>   2.7650  1.0000</r>
       <r>   2.7652  1.0000</r>
       <r>   2.7652  1.0000</r>
       <r>   2.7653  1.0000</r>
       <r>   2.7653  1.0000</r>
       <r>   2.7653  1.0000</r>
       <r>   2.7654  1.0000</r>
       <r>   2.7654  1.0000</r>
       <r>   2.7655  1.0000</r>
       <r>   2.7655  1.0000</r>
       <r>   2.7656  1.0000</r>
       <r>   2.7658  1.0000</r>
       <r>   2.7658  1.0000</r>
       <r>   2.7658  1.0000</r>
       <r>   2.7659  1.0000</r>
       <r>   2.7659  1.0000</r>
       <r>   2.7660  1.0000</r>
       <r>   2.7661  1.0000</r>
       <r>   2.7661  1.0000</r>
       <r>   2.7662  1.0000</r>
       <r>   2.7662  1.0000</r>
       <r>   2.7664  1.0000</r>
       <r>   2.7664  1.0000</r>
       <r>   5.4469  0.0000</r>
       <r>   5.4489  0.0000</r>
       <r>   5.4489  0.0000</r>
       <r>   5.4521  0.0000</r>
       <r>   5.4526  0.0000</r>
       <r>   5.4526  0.0000</r>
       <r>   5.4527  0.0000</r>
       <r>   5.4527  0.0000</r>
       <r>   5.4528  0.0000</r>
       <r>   5.4529  0.0000</r>
       <r>   5.4529  0.0000</r>
       <r>   5.4529  0.0000</r>
       <r>   5.4532  0.0000</r>
       <r>   5.4532  0.0000</r>
       <r>   5.4532  0.0000</r>
       <r>   5.4533  0.0000</r>
       <r>   5.4534  0.0000</r>
       <r>   5.4534  0.0000</r>
       <r>   5.4535  0.0000</r>
       <r>   5.4535  0.0000</r>
       <r>   5.4541  0.0000</r>
       <r>   5.4572  0.0000</r>
       <r>   5.4572  0.0000</r>
       <r>   5.4592  0.0000</r>
       <r>  11.5719  0.0000</r>
       <r>  11.5720  0.0000</r>
       <r>  11.5727  0.0000</r>
       <r>  11.5779  0.0000</r>
       <r>  11.5781  0.0000</r>
       <r>  11.5783  0.0000</r>
       <r>  11.5784  0.0000</r>
       <r>  11.5787  0.0000</r>
       <r>  11.5788  0.0000</r>
       <r>  11.5788  0.0000</r>
       <r>  11.5789  0.0000</r>
       <r>  11.5790  0.0000</r>
       <r>  11.5791  0.0000</r>
       <r>  11.5791  0.0000</r>
       <r>  11.5791  0.0000</r>
       <r>  11.5794  0.0000</r>
       <r>  11.5796  0.0000</r>
       <r>  11.5797  0.0000</r>
       <r>  11.5802  0.0000</r>
       <r>  11.5832  0.0000</r>
      </set>
     </set>
    </set>
   </array>
  </eigenvalues>
 </calculation>
 <structure name="finalpos" >
  <crystal>
   <varray name="basis" >
    <v>       7.05464667      0.00000000      0.00000000</v>
    <v>       0.00000000      7.05464667      0.00000000</v>
    <v>       0.00000000      0.00000000      7.05464667</v>
   </varray>
   <i name="volume">    351.09593582</i>
   <varray name="rec_basis" >
    <v>       0.14175054      0.00000000      0.00000000</v>
    <v>       0.00000000      0.14175054      0.00000000</v>
    <v>       0.00000000      0.00000000      0.14175054</v>
   </varray>
  </crystal>
  <varray name="positions" >
   <v>       0.00141751      0.00000000      0.00000000</v>
   <v>       0.50000000      0.00000000      0.00000000</v>
   <v>       0.00000000      0.50000000      0.00000000</v>
   <v>       0.50000000      0.50000000      0.00000000</v>
   <v>       0.00000000      0.00000000      0.50000000</v>
   <v>       0.50000000      0.00000000      0.50000000</v>
   <v>       0.00000000      0.50000000      0.50000000</v>
   <v>       0.50000000      0.50000000      0.50000000</v>
   <v>       0.25000000      0.25000000      0.00000000</v>
   <v>       0.75000000      0.25000000      0.00000000</v>
   <v>       0.25000000      0.75000000      0.00000000</v>
   <v>       0.75000000      0.75000000      0.00000000</v>
   <v>       0.25000000      0.25000000      0.50000000</v>
   <v>       0.75000000      0.25000000      0.50000000</v>
   <v>       0.25000000      0.75000000      0.50000000</v>
   <v>       0.75000000      0.75000000      0.50000000</v>
   <v>       0.25000000      0.00000000      0.25000000</v>
   <v>       0.75000000      0.00000000      0.25000000</v>
   <v>       0.25000000      0.50000000      0.25000000</v>
   <v>       0.75000000      0.50000000      0.25000000</v>
   <v>       0.25000000      0.00000000      0.75000000</v>
   <v>       0.75000000      0.00000000      0.75000000</v>
   <v>       0.25000000      0.50000000      0.75000000</v>
   <v>       0.75000000      0.50000000      0.75000000</v>
   <v>       0.00000000      0.25000000      0.25000000</v>
   <v>       0.50000000      0.25000000      0.25000000</v>
   <v>       0.00000000      0.75000000      0.25000000</v>
   <v>       0.50000000      0.75000000      0.25000000</v>
   <v>       0.00000000      0.25000000      0.75000000</v>
   <v>       0.50000000      0.25000000      0.75000000</v>
   <v>       0.00000000      0.75000000      0.75000000</v>
   <v>       0.50000000      0.75000000      0.75000000</v>
  </varray>
 </structure>
</modeling>
