natom:   16
displacements:
- atom:    1
  direction:
    [   1.0000000000000000,  0.0000000000000000,  1.0000000000000000 ]
  displacement:
    [   0.0082683942678762,  0.0000232148454669,  0.0056243326094660 ]
- atom:    1
  direction:
    [  -1.0000000000000000,  0.0000000000000000, -1.0000000000000000 ]
  displacement:
    [  -0.0082683942678762, -0.0000232148454669, -0.0056243326094660 ]
lattice:
- [     5.880444733272053,     0.016510293454464,     0.000000000000000 ] # a
- [    -2.925923913688232,     5.100869740085427,     0.000000000000000 ] # b
- [     0.000000000000000,     0.000000000000000,     4.000000000000000 ] # c
points:
- symbol: Ti # 1
  coordinates: [  0.166115092079380,  0.333884907920620,  0.125000000000000 ]
  mass: 47.867000
- symbol: Ti # 2
  coordinates: [  0.666115092079380,  0.333884907920620,  0.125000000000000 ]
  mass: 47.867000
- symbol: Ti # 3
  coordinates: [  0.166115092079380,  0.833884907920620,  0.125000000000000 ]
  mass: 47.867000
- symbol: Ti # 4
  coordinates: [  0.666115092079380,  0.833884907920620,  0.125000000000000 ]
  mass: 47.867000
- symbol: Ti # 5
  coordinates: [  0.166115092079380,  0.333884907920620,  0.625000000000000 ]
  mass: 47.867000
- symbol: Ti # 6
  coordinates: [  0.666115092079380,  0.333884907920620,  0.625000000000000 ]
  mass: 47.867000
- symbol: Ti # 7
  coordinates: [  0.166115092079380,  0.833884907920620,  0.625000000000000 ]
  mass: 47.867000
- symbol: Ti # 8
  coordinates: [  0.666115092079380,  0.833884907920620,  0.625000000000000 ]
  mass: 47.867000
- symbol: Ti # 9
  coordinates: [  0.333884907920620,  0.166115092079380,  0.375000000000000 ]
  mass: 47.867000
- symbol: Ti # 10
  coordinates: [  0.833884907920620,  0.166115092079380,  0.375000000000000 ]
  mass: 47.867000
- symbol: Ti # 11
  coordinates: [  0.333884907920620,  0.666115092079380,  0.375000000000000 ]
  mass: 47.867000
- symbol: Ti # 12
  coordinates: [  0.833884907920620,  0.666115092079380,  0.375000000000000 ]
  mass: 47.867000
- symbol: Ti # 13
  coordinates: [  0.333884907920620,  0.166115092079380,  0.875000000000000 ]
  mass: 47.867000
- symbol: Ti # 14
  coordinates: [  0.833884907920620,  0.166115092079380,  0.875000000000000 ]
  mass: 47.867000
- symbol: Ti # 15
  coordinates: [  0.333884907920620,  0.666115092079380,  0.875000000000000 ]
  mass: 47.867000
- symbol: Ti # 16
  coordinates: [  0.833884907920620,  0.666115092079380,  0.875000000000000 ]
  mass: 47.867000