phonopy:
  version: 1.11.2
  configuration:
    dim: "2 2 2"
    create_displacements: ".true."

supercell_matrix:
- [   2,   0,   0 ]
- [   0,   2,   0 ]
- [   0,   0,   2 ]

primitive_cell:
  lattice:
  - [     2.940222366636026,     0.008255146727232,     0.000000000000000 ] # a
  - [    -1.462961956844116,     2.550434870042714,     0.000000000000000 ] # b
  - [     0.000000000000000,     0.000000000000000,     2.000000000000000 ] # c
  points:
  - symbol: Ti # 1
    coordinates: [  0.332230184158760,  0.667769815841240,  0.250000000000000 ]
    mass: 47.867000
  - symbol: Ti # 2
    coordinates: [  0.667769815841240,  0.332230184158760,  0.750000000000000 ]
    mass: 47.867000
  reciprocal_lattice: # without 2pi
  - [     0.339563459873167,     0.194777929663613,     0.000000000000000 ] # a*
  - [    -0.001099085578458,     0.391459547286804,     0.000000000000000 ] # b*
  - [     0.000000000000000,     0.000000000000000,     0.500000000000000 ] # c*

unit_cell:
  lattice:
  - [     2.940222366636026,     0.008255146727232,     0.000000000000000 ] # a
  - [    -1.462961956844116,     2.550434870042714,     0.000000000000000 ] # b
  - [     0.000000000000000,     0.000000000000000,     2.000000000000000 ] # c
  points:
  - symbol: Ti # 1
    coordinates: [  0.332230184158760,  0.667769815841240,  0.250000000000000 ]
    mass: 47.867000
    reduced_to: 1
  - symbol: Ti # 2
    coordinates: [  0.667769815841240,  0.332230184158760,  0.750000000000000 ]
    mass: 47.867000
    reduced_to: 2

supercell:
  lattice:
  - [     5.880444733272053,     0.016510293454464,     0.000000000000000 ] # a
  - [    -2.925923913688232,     5.100869740085427,     0.000000000000000 ] # b
  - [     0.000000000000000,     0.000000000000000,     4.000000000000000 ] # c
  points:
  - symbol: Ti # 1
    coordinates: [  0.166115092079380,  0.333884907920620,  0.125000000000000 ]
    mass: 47.867000
    reduced_to: 1
  - symbol: Ti # 2
    coordinates: [  0.666115092079380,  0.333884907920620,  0.125000000000000 ]
    mass: 47.867000
    reduced_to: 1
  - symbol: Ti # 3
    coordinates: [  0.166115092079380,  0.833884907920620,  0.125000000000000 ]
    mass: 47.867000
    reduced_to: 1
  - symbol: Ti # 4
    coordinates: [  0.666115092079380,  0.833884907920620,  0.125000000000000 ]
    mass: 47.867000
    reduced_to: 1
  - symbol: Ti # 5
    coordinates: [  0.166115092079380,  0.333884907920620,  0.625000000000000 ]
    mass: 47.867000
    reduced_to: 1
  - symbol: Ti # 6
    coordinates: [  0.666115092079380,  0.333884907920620,  0.625000000000000 ]
    mass: 47.867000
    reduced_to: 1
  - symbol: Ti # 7
    coordinates: [  0.166115092079380,  0.833884907920620,  0.625000000000000 ]
    mass: 47.867000
    reduced_to: 1
  - symbol: Ti # 8
    coordinates: [  0.666115092079380,  0.833884907920620,  0.625000000000000 ]
    mass: 47.867000
    reduced_to: 1
  - symbol: Ti # 9
    coordinates: [  0.333884907920620,  0.166115092079380,  0.375000000000000 ]
    mass: 47.867000
    reduced_to: 9
  - symbol: Ti # 10
    coordinates: [  0.833884907920620,  0.166115092079380,  0.375000000000000 ]
    mass: 47.867000
    reduced_to: 9
  - symbol: Ti # 11
    coordinates: [  0.333884907920620,  0.666115092079380,  0.375000000000000 ]
    mass: 47.867000
    reduced_to: 9
  - symbol: Ti # 12
    coordinates: [  0.833884907920620,  0.666115092079380,  0.375000000000000 ]
    mass: 47.867000
    reduced_to: 9
  - symbol: Ti # 13
    coordinates: [  0.333884907920620,  0.166115092079380,  0.875000000000000 ]
    mass: 47.867000
    reduced_to: 9
  - symbol: Ti # 14
    coordinates: [  0.833884907920620,  0.166115092079380,  0.875000000000000 ]
    mass: 47.867000
    reduced_to: 9
  - symbol: Ti # 15
    coordinates: [  0.333884907920620,  0.666115092079380,  0.875000000000000 ]
    mass: 47.867000
    reduced_to: 9
  - symbol: Ti # 16
    coordinates: [  0.833884907920620,  0.666115092079380,  0.875000000000000 ]
    mass: 47.867000
    reduced_to: 9
