  32  32   0   0
  0.1694903E+02  0.8155144E-09  0.8155144E-09  0.8155144E-09  0.5000000E-15
  1.000000000000000E-004
  CAR 
 unknown system                          
     12.26869658     -3.96560839  301      7.70915713      1.00000000
     -3.966  0.0000E+00  0.0000E+00
     -3.911  0.0000E+00  0.0000E+00
     -3.857  0.0000E+00  0.0000E+00
     -3.803  0.0000E+00  0.0000E+00
     -3.749  0.0000E+00  0.0000E+00
     -3.695  0.0000E+00  0.0000E+00
     -3.641  0.0000E+00  0.0000E+00
     -3.587  0.0000E+00  0.0000E+00
     -3.533  0.0000E+00  0.0000E+00
     -3.479  0.0000E+00  0.0000E+00
     -3.424  0.0000E+00  0.0000E+00
     -3.370  0.0000E+00  0.0000E+00
     -3.316  0.0000E+00  0.0000E+00
     -3.262  0.9545E-07  0.5165E-08
     -3.208  0.1706E+00  0.9234E-02
     -3.154  0.9809E+00  0.6231E-01
     -3.100  0.1541E+01  0.1457E+00
     -3.046  0.9922E+00  0.1994E+00
     -2.992  0.9964E+00  0.2533E+00
     -2.937  0.9826E+00  0.3065E+00
     -2.883  0.4089E+01  0.5278E+00
     -2.829  0.4106E+01  0.7500E+00
     -2.775  0.5489E-08  0.7500E+00
     -2.721  0.1982E+01  0.8573E+00
     -2.667  0.4048E+01  0.1076E+01
     -2.613  0.2724E+01  0.1224E+01
     -2.559  0.2905E+01  0.1381E+01
     -2.505  0.3752E+01  0.1584E+01
     -2.450  0.1359E+01  0.1657E+01
     -2.396  0.4105E+01  0.1880E+01
     -2.342  0.8206E+01  0.2324E+01
     -2.288  0.6929E-02  0.2324E+01
     -2.234  0.8835E+00  0.2372E+01
     -2.180  0.4426E+01  0.2611E+01
     -2.126  0.4957E+01  0.2880E+01
     -2.072  0.5237E+01  0.3163E+01
     -2.017  0.4009E+01  0.3380E+01
     -1.963  0.4101E+01  0.3602E+01
     -1.909  0.8211E+01  0.4046E+01
     -1.855  0.4086E+01  0.4267E+01
     -1.801  0.2189E-01  0.4269E+01
     -1.747  0.2955E+01  0.4428E+01
     -1.693  0.2898E+01  0.4585E+01
     -1.639  0.4377E+01  0.4822E+01
     -1.585  0.1138E+02  0.5438E+01
     -1.530  0.5424E+01  0.5731E+01
     -1.476  0.9744E-04  0.5731E+01
     -1.422  0.1231E+02  0.6398E+01
     -1.368  0.8125E+01  0.6837E+01
     -1.314  0.9593E-01  0.6843E+01
     -1.260  0.1289E+01  0.6912E+01
     -1.206  0.2905E+01  0.7070E+01
     -1.152  0.6527E+01  0.7423E+01
     -1.098  0.7806E+01  0.7845E+01
     -1.043  0.8167E+01  0.8287E+01
     -0.989  0.5132E+01  0.8565E+01
     -0.935  0.4102E+01  0.8787E+01
     -0.881  0.1214E+02  0.9444E+01
     -0.827  0.1801E+00  0.9454E+01
     -0.773  0.2537E+01  0.9591E+01
     -0.719  0.5876E+01  0.9909E+01
     -0.665  0.1259E+02  0.1059E+02
     -0.611  0.7775E+01  0.1101E+02
     -0.556  0.4081E+01  0.1123E+02
     -0.502  0.4105E+01  0.1145E+02
     -0.448  0.1231E+02  0.1212E+02
     -0.394  0.8133E+01  0.1256E+02
     -0.340  0.8874E-01  0.1256E+02
     -0.286  0.9341E+00  0.1262E+02
     -0.232  0.3621E+01  0.1281E+02
     -0.178  0.7416E+01  0.1321E+02
     -0.123  0.1314E+02  0.1392E+02
     -0.069  0.8083E+01  0.1436E+02
     -0.015  0.4103E+01  0.1458E+02
      0.039  0.1232E+02  0.1525E+02
      0.093  0.1637E+02  0.1614E+02
      0.147  0.6140E-01  0.1614E+02
      0.201  0.6693E+01  0.1650E+02
      0.255  0.5786E+01  0.1681E+02
      0.309  0.4845E+01  0.1708E+02
      0.364  0.3826E+01  0.1728E+02
      0.418  0.1170E+02  0.1792E+02
      0.472  0.3817E-02  0.1792E+02
      0.526  0.1232E+02  0.1858E+02
      0.580  0.1642E+02  0.1947E+02
      0.634  0.8523E-02  0.1947E+02
      0.688  0.9931E+00  0.1953E+02
      0.742  0.1280E+02  0.2022E+02
      0.796  0.1148E+02  0.2084E+02
      0.851  0.9333E+01  0.2135E+02
      0.905  0.3760E+01  0.2155E+02
      0.959  0.7945E+01  0.2198E+02
      1.013  0.1631E+02  0.2286E+02
      1.067  0.8211E+01  0.2331E+02
      1.121  0.3756E-05  0.2331E+02
      1.175  0.6122E+01  0.2364E+02
      1.229  0.7892E+01  0.2406E+02
      1.283  0.1714E+02  0.2499E+02
      1.338  0.8509E+01  0.2545E+02
      1.392  0.5623E+01  0.2576E+02
      1.446  0.4359E+01  0.2599E+02
      1.500  0.1544E+02  0.2683E+02
      1.554  0.8155E+01  0.2727E+02
      1.608  0.2713E-03  0.2727E+02
      1.662  0.4106E+01  0.2749E+02
      1.716  0.1741E+02  0.2843E+02
      1.771  0.8187E+01  0.2888E+02
      1.825  0.1122E+02  0.2948E+02
      1.879  0.7144E+01  0.2987E+02
      1.933  0.6463E+01  0.3022E+02
      1.987  0.8484E+01  0.3068E+02
      2.041  0.1603E+02  0.3155E+02
      2.095  0.1010E-01  0.3155E+02
      2.149  0.4126E+01  0.3177E+02
      2.203  0.2461E+02  0.3310E+02
      2.258  0.2052E+02  0.3421E+02
      2.312  0.8215E+01  0.3466E+02
      2.366  0.3000E-02  0.3466E+02
      2.420  0.7390E+01  0.3506E+02
      2.474  0.1306E+02  0.3576E+02
      2.528  0.4186E+01  0.3599E+02
      2.582  0.6813E+00  0.3603E+02
      2.636  0.4142E+01  0.3625E+02
      2.690  0.7882E+01  0.3668E+02
      2.745  0.1815E+02  0.3766E+02
      2.799  0.1234E+02  0.3833E+02
      2.853  0.5122E+01  0.3861E+02
      2.907  0.2866E+02  0.4016E+02
      2.961  0.8168E+01  0.4060E+02
      3.015  0.7166E-01  0.4060E+02
      3.069  0.1064E+02  0.4118E+02
      3.123  0.1477E+02  0.4198E+02
      3.177  0.9951E+01  0.4252E+02
      3.232  0.8475E+01  0.4297E+02
      3.286  0.1315E+02  0.4369E+02
      3.340  0.3314E+01  0.4386E+02
      3.394  0.1672E+02  0.4477E+02
      3.448  0.1469E+02  0.4556E+02
      3.502  0.2704E+01  0.4571E+02
      3.556  0.1425E+01  0.4579E+02
      3.610  0.2045E+02  0.4689E+02
      3.665  0.7779E+01  0.4732E+02
      3.719  0.1247E+02  0.4799E+02
      3.773  0.8548E+01  0.4845E+02
      3.827  0.1382E+02  0.4920E+02
      3.881  0.1726E+02  0.5013E+02
      3.935  0.5894E+01  0.5045E+02
      3.989  0.4954E+01  0.5072E+02
      4.043  0.1111E+02  0.5132E+02
      4.097  0.1784E+02  0.5229E+02
      4.152  0.4089E+01  0.5251E+02
      4.206  0.3937E+01  0.5272E+02
      4.260  0.1335E+02  0.5344E+02
      4.314  0.2817E+02  0.5497E+02
      4.368  0.1204E+02  0.5562E+02
      4.422  0.5948E-05  0.5562E+02
      4.476  0.9347E+01  0.5613E+02
      4.530  0.1482E+02  0.5693E+02
      4.584  0.1826E+02  0.5792E+02
      4.639  0.1075E+02  0.5850E+02
      4.693  0.1048E+02  0.5906E+02
      4.747  0.9629E+01  0.5959E+02
      4.801  0.1601E+02  0.6045E+02
      4.855  0.7135E+01  0.6084E+02
      4.909  0.1087E+01  0.6090E+02
      4.963  0.2130E+02  0.6205E+02
      5.017  0.2160E+02  0.6322E+02
      5.071  0.1241E+02  0.6389E+02
      5.126  0.1024E+02  0.6444E+02
      5.180  0.1812E+02  0.6543E+02
      5.234  0.5439E+01  0.6572E+02
      5.288  0.7007E+01  0.6610E+02
      5.342  0.1015E+02  0.6665E+02
      5.396  0.9492E+01  0.6716E+02
      5.450  0.1224E+02  0.6782E+02
      5.504  0.1698E+02  0.6874E+02
      5.559  0.1261E+02  0.6943E+02
      5.613  0.1680E+02  0.7033E+02
      5.667  0.5563E+01  0.7064E+02
      5.721  0.1657E+02  0.7153E+02
      5.775  0.8948E+01  0.7202E+02
      5.829  0.1081E+02  0.7260E+02
      5.883  0.1498E+02  0.7341E+02
      5.937  0.9699E+01  0.7394E+02
      5.991  0.1682E+02  0.7485E+02
      6.046  0.1231E+02  0.7551E+02
      6.100  0.1616E+02  0.7639E+02
      6.154  0.5389E+00  0.7642E+02
      6.208  0.2845E+01  0.7657E+02
      6.262  0.1357E+02  0.7730E+02
      6.316  0.6432E+01  0.7765E+02
      6.370  0.1375E+02  0.7840E+02
      6.424  0.2905E+02  0.7997E+02
      6.478  0.4819E+01  0.8023E+02
      6.533  0.1370E+02  0.8097E+02
      6.587  0.1448E+01  0.8105E+02
      6.641  0.2931E+02  0.8264E+02
      6.695  0.8966E+01  0.8312E+02
      6.749  0.1164E+02  0.8375E+02
      6.803  0.1189E+02  0.8439E+02
      6.857  0.6251E+01  0.8473E+02
      6.911  0.1486E+02  0.8554E+02
      6.965  0.1189E+02  0.8618E+02
      7.020  0.1046E+02  0.8674E+02
      7.074  0.1411E+02  0.8751E+02
      7.128  0.1817E+02  0.8849E+02
      7.182  0.1620E+02  0.8937E+02
      7.236  0.8072E+01  0.8981E+02
      7.290  0.1986E+01  0.8991E+02
      7.344  0.6121E+01  0.9024E+02
      7.398  0.2538E+02  0.9162E+02
      7.453  0.6969E+01  0.9199E+02
      7.507  0.1170E+02  0.9263E+02
      7.561  0.2080E+02  0.9375E+02
      7.615  0.1385E+02  0.9450E+02
      7.669  0.1366E+02  0.9524E+02
      7.723  0.2229E+02  0.9645E+02
      7.777  0.2177E+02  0.9763E+02
      7.831  0.1113E+02  0.9823E+02
      7.885  0.4841E+01  0.9849E+02
      7.940  0.1579E+02  0.9935E+02
      7.994  0.9627E+01  0.9987E+02
      8.048  0.1328E+02  0.1006E+03
      8.102  0.9212E+01  0.1011E+03
      8.156  0.3524E+01  0.1013E+03
      8.210  0.2211E+02  0.1025E+03
      8.264  0.8744E+01  0.1029E+03
      8.318  0.2401E+02  0.1042E+03
      8.372  0.8691E+01  0.1047E+03
      8.427  0.2699E-01  0.1047E+03
      8.481  0.1225E+02  0.1054E+03
      8.535  0.9538E+01  0.1059E+03
      8.589  0.1761E+02  0.1068E+03
      8.643  0.2991E+02  0.1085E+03
      8.697  0.1240E+02  0.1091E+03
      8.751  0.1498E+02  0.1099E+03
      8.805  0.1419E+02  0.1107E+03
      8.859  0.2172E+02  0.1119E+03
      8.914  0.1101E+02  0.1125E+03
      8.968  0.8029E+01  0.1129E+03
      9.022  0.1702E+02  0.1138E+03
      9.076  0.5659E+01  0.1141E+03
      9.130  0.1960E+02  0.1152E+03
      9.184  0.2064E+02  0.1163E+03
      9.238  0.1359E+02  0.1171E+03
      9.292  0.1643E+02  0.1180E+03
      9.347  0.5536E+01  0.1183E+03
      9.401  0.1579E+02  0.1191E+03
      9.455  0.1732E+02  0.1200E+03
      9.509  0.4008E+01  0.1203E+03
      9.563  0.1781E+02  0.1212E+03
      9.617  0.2730E+02  0.1227E+03
      9.671  0.7656E+01  0.1231E+03
      9.725  0.1213E+02  0.1238E+03
      9.779  0.2373E+02  0.1251E+03
      9.834  0.1427E+02  0.1258E+03
      9.888  0.9790E+00  0.1259E+03
      9.942  0.1185E+02  0.1265E+03
      9.996  0.1032E+02  0.1271E+03
     10.050  0.2283E+02  0.1283E+03
     10.104  0.1947E+02  0.1294E+03
     10.158  0.1942E+02  0.1304E+03
     10.212  0.6485E+01  0.1308E+03
     10.266  0.1169E+02  0.1314E+03
     10.321  0.1428E+02  0.1322E+03
     10.375  0.1733E+02  0.1331E+03
     10.429  0.8944E+01  0.1336E+03
     10.483  0.2164E+02  0.1348E+03
     10.537  0.1384E+02  0.1355E+03
     10.591  0.1377E+02  0.1363E+03
     10.645  0.1304E+02  0.1370E+03
     10.699  0.1516E+02  0.1378E+03
     10.753  0.1772E+02  0.1387E+03
     10.808  0.6625E+01  0.1391E+03
     10.862  0.1908E+02  0.1401E+03
     10.916  0.1632E+02  0.1410E+03
     10.970  0.2078E+01  0.1411E+03
     11.024  0.1288E+02  0.1418E+03
     11.078  0.1329E+02  0.1426E+03
     11.132  0.8535E+01  0.1430E+03
     11.186  0.3544E+01  0.1432E+03
     11.241  0.8205E+01  0.1436E+03
     11.295  0.3835E-01  0.1437E+03
     11.349  0.1330E+01  0.1437E+03
     11.403  0.7423E-04  0.1437E+03
     11.457  0.3042E+01  0.1439E+03
     11.511  0.1068E+01  0.1439E+03
     11.565  0.1023E+01  0.1440E+03
     11.619  0.0000E+00  0.1440E+03
     11.673  0.0000E+00  0.1440E+03
     11.728  0.0000E+00  0.1440E+03
     11.782  0.0000E+00  0.1440E+03
     11.836  0.0000E+00  0.1440E+03
     11.890  0.0000E+00  0.1440E+03
     11.944  0.0000E+00  0.1440E+03
     11.998  0.0000E+00  0.1440E+03
     12.052  0.0000E+00  0.1440E+03
     12.106  0.0000E+00  0.1440E+03
     12.160  0.0000E+00  0.1440E+03
     12.215  0.0000E+00  0.1440E+03
     12.269  0.0000E+00  0.1440E+03
