   32   32    1    1
  0.1694903E+02  0.8155144E-09  0.8155144E-09  0.8155144E-09  0.5000000E-15
  1.000000000000000E-004
  CAR 
 unknown system                          
   96   40   72
 
  0.0000000E+00  0.0000000E+00  0.0000000E+00  0.4629630E-02
   1       -3.2277
   2       -1.0219
   3       -1.0184
   4       -1.0184
   5       -1.0184
   6       -1.0184
   7       -1.0150
   8        1.1520
   9        1.1563
  10        1.1563
  11        1.1578
  12        1.1580
  13        1.1580
  14        1.1580
  15        1.1580
  16        1.1581
  17        1.1596
  18        1.1596
  19        1.1640
  20        3.2363
  21        3.2364
  22        3.2364
  23        3.2364
  24        3.3781
  25        3.3781
  26        3.3781
  27        3.3782
  28        4.8634
  29        4.8634
  30        4.8635
  31        6.1251
  32        6.1251
  33        6.1251
  34        6.9061
  35        6.9061
  36        6.9103
  37        6.9103
  38        6.9103
  39        6.9103
  40        6.9103
  41        6.9104
  42        6.9104
  43        6.9104
  44        6.9145
  45        6.9145
  46        7.9355
  47        7.9394
  48        7.9394
  49        7.9394
  50        7.9394
  51        7.9433
  52        8.6806
  53        8.6813
  54        8.6813
  55        8.6813
  56        8.6814
  57        8.6821
  58        8.9584
  59        8.9584
  60        8.9600
  61        8.9622
  62        8.9624
  63        8.9624
  64        8.9624
  65        8.9624
  66        8.9625
  67        8.9647
  68        8.9663
  69        8.9663
  70       10.3930
  71       10.3938
  72       10.3945
 
  0.1666667E+00  0.0000000E+00  0.0000000E+00  0.9259259E-02
   1       -3.1659
   2       -1.6899
   3       -0.9576
   4       -0.9575
   5       -0.9575
   6       -0.9575
   7       -0.2292
   8        0.4964
   9        0.4964
  10        0.4964
  11        0.4965
  12        1.2180
  13        1.2180
  14        1.2180
  15        1.2180
  16        1.9356
  17        1.9356
  18        1.9356
  19        1.9356
  20        2.6504
  21        2.6504
  22        2.6504
  23        2.6504
  24        3.9974
  25        4.0791
  26        4.0791
  27        4.0791
  28        4.0791
  29        4.9202
  30        4.9202
  31        6.0815
  32        6.0815
  33        6.0815
  34        6.0815
  35        6.1853
  36        6.1853
  37        6.2841
  38        6.2841
  39        6.9673
  40        6.9673
  41        6.9673
  42        6.9673
  43        7.0987
  44        7.5668
  45        7.5668
  46        7.6512
  47        7.6512
  48        8.1726
  49        8.1726
  50        8.1726
  51        8.1726
  52        8.2772
  53        8.2772
  54        8.2772
  55        8.2773
  56        8.3349
  57        8.3349
  58        8.3350
  59        8.3350
  60        9.1605
  61        9.1605
  62        9.3366
  63        9.3366
  64        9.3366
  65        9.3366
  66        9.7042
  67        9.7042
  68        9.7042
  69        9.7045
  70        9.7620
  71        9.7620
  72        9.7620
 
  0.3333333E+00  0.0000000E+00  0.0000000E+00  0.9259259E-02
   1       -2.9806
   2       -2.2416
   3       -0.7751
   4       -0.7750
   5       -0.7750
   6       -0.7750
   7       -0.0471
   8       -0.0471
   9       -0.0471
  10       -0.0471
  11        0.6752
  12        1.3979
  13        1.3980
  14        1.3980
  15        1.3980
  16        2.1155
  17        2.1155
  18        2.1155
  19        2.1155
  20        2.8091
  21        2.8264
  22        2.8264
  23        2.8264
  24        2.8265
  25        4.9235
  26        4.9235
  27        4.9235
  28        4.9235
  29        4.9579
  30        4.9579
  31        4.9579
  32        4.9579
  33        5.0905
  34        5.0905
  35        5.7723
  36        5.7723
  37        6.3652
  38        6.3652
  39        7.0309
  40        7.0309
  41        7.0309
  42        7.0309
  43        7.0704
  44        7.0706
  45        7.1381
  46        7.1381
  47        7.1382
  48        7.1382
  49        7.8218
  50        7.8218
  51        7.8218
  52        7.8218
  53        8.5068
  54        8.5068
  55        8.5167
  56        8.5167
  57        8.5167
  58        8.5167
  59        8.6095
  60        9.2379
  61        9.2379
  62        9.2379
  63        9.2379
  64        9.9727
  65        9.9727
  66       10.5599
  67       10.5599
  68       10.5605
  69       10.5605
  70       10.5636
  71       10.5636
  72       10.7459
 
  0.5000000E+00  0.0000000E+00  0.0000000E+00  0.4629630E-02
   1       -2.6736
   2       -2.6708
   3       -0.4752
   4       -0.4722
   5       -0.4722
   6       -0.4713
   7       -0.4713
   8       -0.4704
   9       -0.4704
  10       -0.4674
  11        1.6886
  12        1.6910
  13        1.6958
  14        1.6961
  15        1.6961
  16        1.6969
  17        1.6979
  18        1.6986
  19        1.6986
  20        1.7010
  21        3.8249
  22        3.8250
  23        3.8250
  24        3.8257
  25        3.8260
  26        3.8267
  27        3.8267
  28        3.8268
  29        5.3729
  30        5.3729
  31        5.3760
  32        5.3760
  33        5.9446
  34        5.9446
  35        5.9451
  36        5.9455
  37        5.9459
  38        5.9462
  39        5.9468
  40        5.9468
  41        6.6604
  42        6.6614
  43        6.6632
  44        6.6642
  45        7.4206
  46        7.4206
  47        7.4215
  48        7.4228
  49        7.4231
  50        7.4244
  51        7.4253
  52        7.4253
  53        8.8217
  54        8.8226
  55        8.8226
  56        8.8228
  57        8.8249
  58        8.8251
  59        8.8251
  60        8.8261
  61        9.4764
  62        9.4764
  63        9.4786
  64        9.4786
  65       10.2638
  66       10.2652
  67       10.8918
  68       10.8923
  69       10.8936
  70       10.8941
  71       11.5298
  72       11.5307
 
  0.0000000E+00  0.1666667E+00  0.0000000E+00  0.1851852E-01
   1       -3.1659
   2       -1.6899
   3       -0.9602
   4       -0.9575
   5       -0.9575
   6       -0.9549
   7       -0.2292
   8        0.4938
   9        0.4964
  10        0.4965
  11        0.4991
  12        1.2159
  13        1.2169
  14        1.2192
  15        1.2201
  16        1.9329
  17        1.9356
  18        1.9356
  19        1.9383
  20        2.6482
  21        2.6492
  22        2.6515
  23        2.6525
  24        3.9974
  25        4.0769
  26        4.0779
  27        4.0803
  28        4.0812
  29        4.9202
  30        4.9202
  31        6.0786
  32        6.0815
  33        6.0815
  34        6.0844
  35        6.1853
  36        6.1853
  37        6.2841
  38        6.2842
  39        6.9647
  40        6.9673
  41        6.9673
  42        6.9699
  43        7.0987
  44        7.5667
  45        7.5668
  46        7.6512
  47        7.6512
  48        8.1702
  49        8.1715
  50        8.1738
  51        8.1751
  52        8.2749
  53        8.2772
  54        8.2772
  55        8.2795
  56        8.3323
  57        8.3349
  58        8.3350
  59        8.3376
  60        9.1605
  61        9.1605
  62        9.3348
  63        9.3366
  64        9.3366
  65        9.3384
  66        9.7015
  67        9.7042
  68        9.7042
  69        9.7069
  70        9.7600
  71        9.7620
  72        9.7640
 
  0.1666667E+00  0.1666667E+00  0.0000000E+00  0.3703704E-01
   1       -3.1041
   2       -1.6298
   3       -1.6276
   4       -0.8967
   5       -0.8967
   6       -0.1702
   7       -0.1685
   8       -0.1668
   9        0.5552
  10        0.5561
  11        0.5573
  12        0.5583
  13        1.2771
  14        1.2780
  15        1.9932
  16        1.9944
  17        1.9956
  18        1.9958
  19        1.9970
  20        1.9980
  21        2.7090
  22        3.3510
  23        3.3510
  24        3.4993
  25        3.4993
  26        4.0553
  27        4.0562
  28        4.8420
  29        4.8420
  30        4.9770
  31        5.4480
  32        5.4501
  33        6.0585
  34        6.0585
  35        6.2336
  36        6.2337
  37        6.2453
  38        6.3398
  39        6.3422
  40        6.8090
  41        6.8108
  42        7.1567
  43        7.1576
  44        7.5378
  45        7.5388
  46        7.5400
  47        7.5410
  48        7.7059
  49        7.7080
  50        7.7102
  51        7.7104
  52        7.7118
  53        8.4431
  54        8.4454
  55        8.9175
  56        8.9186
  57        8.9188
  58        8.9198
  59        9.0220
  60        9.0220
  61        9.0758
  62        9.0776
  63        9.1259
  64        9.2824
  65        9.2830
  66        9.5695
  67        9.5695
  68       10.0193
  69       10.0213
  70       10.4459
  71       10.5017
  72       10.5018
 
  0.3333333E+00  0.1666667E+00  0.0000000E+00  0.3703704E-01
   1       -2.9188
   2       -2.1802
   3       -1.4453
   4       -0.7156
   5       -0.7142
   6       -0.7128
   7        0.0117
   8        0.0134
   9        0.0145
  10        0.7342
  11        0.7369
  12        0.7375
  13        0.7386
  14        1.4582
  15        1.4582
  16        2.1723
  17        2.1743
  18        2.1745
  19        2.8682
  20        2.8846
  21        2.8852
  22        2.8872
  23        2.8879
  24        3.5947
  25        4.2305
  26        4.2813
  27        4.3133
  28        4.3133
  29        4.9281
  30        4.9796
  31        4.9796
  32        5.1473
  33        5.6754
  34        5.7181
  35        5.7181
  36        5.8291
  37        6.3294
  38        6.3294
  39        6.3927
  40        6.3927
  41        6.4242
  42        6.5117
  43        7.0203
  44        7.0203
  45        7.0967
  46        7.1949
  47        7.3317
  48        7.7651
  49        7.7823
  50        7.7824
  51        7.8792
  52        7.8898
  53        8.0122
  54        8.5620
  55        8.5652
  56        8.5994
  57        8.6664
  58        9.2089
  59        9.4207
  60        9.4207
  61        9.7664
  62        9.7758
  63        9.7759
  64        9.9330
  65        9.9798
  66       10.0395
  67       10.1432
  68       10.1432
  69       10.1784
  70       10.6202
  71       10.8151
  72       10.8213
 
  0.5000000E+00  0.1666667E+00  0.0000000E+00  0.1851852E-01
   1       -2.6120
   2       -2.6092
   3       -1.1417
   4       -1.1388
   5       -0.4126
   6       -0.4115
   7       -0.4098
   8       -0.4087
   9        0.3135
  10        0.3164
  11        1.0362
  12        1.0373
  13        1.0391
  14        1.0402
  15        1.7499
  16        1.7512
  17        2.4699
  18        2.4711
  19        2.4728
  20        2.4739
  21        3.1763
  22        3.1777
  23        3.8836
  24        3.8839
  25        3.8849
  26        3.8852
  27        4.5201
  28        4.5230
  29        4.5870
  30        4.5883
  31        5.3026
  32        5.3028
  33        5.3041
  34        5.3042
  35        5.4298
  36        5.4328
  37        6.6143
  38        6.6155
  39        6.6172
  40        6.6184
  41        6.7010
  42        6.7010
  43        6.7024
  44        6.7026
  45        6.7165
  46        6.7192
  47        6.7948
  48        6.7979
  49        7.6184
  50        7.6213
  51        8.1626
  52        8.1657
  53        8.1851
  54        8.1878
  55        8.6995
  56        8.7013
  57        9.5334
  58        9.5357
  59        9.5595
  60        9.5624
  61        9.7315
  62        9.7323
  63        9.7345
  64        9.7352
  65       10.3184
  66       10.3198
  67       10.7395
  68       10.7397
  69       10.7414
  70       10.7416
  71       10.9034
  72       10.9064
 
  0.0000000E+00  0.3333333E+00  0.0000000E+00  0.1851852E-01
   1       -2.9806
   2       -2.2416
   3       -0.7777
   4       -0.7750
   5       -0.7750
   6       -0.7724
   7       -0.0498
   8       -0.0471
   9       -0.0471
  10       -0.0445
  11        0.6752
  12        1.3958
  13        1.3968
  14        1.3991
  15        1.4001
  16        2.1133
  17        2.1143
  18        2.1166
  19        2.1176
  20        2.8091
  21        2.8237
  22        2.8264
  23        2.8264
  24        2.8291
  25        4.9207
  26        4.9235
  27        4.9235
  28        4.9263
  29        4.9557
  30        4.9567
  31        4.9591
  32        4.9601
  33        5.0905
  34        5.0905
  35        5.7723
  36        5.7723
  37        6.3651
  38        6.3652
  39        7.0286
  40        7.0298
  41        7.0321
  42        7.0332
  43        7.0704
  44        7.0705
  45        7.1355
  46        7.1381
  47        7.1382
  48        7.1407
  49        7.8192
  50        7.8218
  51        7.8219
  52        7.8245
  53        8.5066
  54        8.5068
  55        8.5146
  56        8.5167
  57        8.5167
  58        8.5189
  59        8.6095
  60        9.2357
  61        9.2378
  62        9.2379
  63        9.2400
  64        9.9727
  65        9.9727
  66       10.5577
  67       10.5605
  68       10.5605
  69       10.5627
  70       10.5630
  71       10.5635
  72       10.7446
 
  0.1666667E+00  0.3333333E+00  0.0000000E+00  0.3703704E-01
   1       -2.9188
   2       -2.1802
   3       -1.4453
   4       -0.7156
   5       -0.7142
   6       -0.7128
   7        0.0117
   8        0.0134
   9        0.0145
  10        0.7344
  11        0.7363
  12        0.7375
  13        0.7390
  14        1.4582
  15        1.4582
  16        2.1718
  17        2.1743
  18        2.1751
  19        2.8682
  20        2.8853
  21        2.8856
  22        2.8868
  23        2.8872
  24        3.5947
  25        4.2305
  26        4.2813
  27        4.3133
  28        4.3133
  29        4.9281
  30        4.9796
  31        4.9796
  32        5.1473
  33        5.6754
  34        5.7181
  35        5.7181
  36        5.8291
  37        6.3294
  38        6.3294
  39        6.3927
  40        6.3927
  41        6.4242
  42        6.5117
  43        7.0203
  44        7.0203
  45        7.0967
  46        7.1949
  47        7.3317
  48        7.7651
  49        7.7824
  50        7.7824
  51        7.8792
  52        7.8898
  53        8.0122
  54        8.5628
  55        8.5644
  56        8.5994
  57        8.6664
  58        9.2089
  59        9.4207
  60        9.4207
  61        9.7665
  62        9.7758
  63        9.7758
  64        9.9330
  65        9.9798
  66       10.0395
  67       10.1432
  68       10.1432
  69       10.1784
  70       10.6202
  71       10.8151
  72       10.8286
 
  0.3333333E+00  0.3333333E+00  0.0000000E+00  0.3703704E-01
   1       -2.7338
   2       -1.9972
   3       -1.9951
   4       -1.2622
   5       -0.5320
   6       -0.5320
   7        0.1932
   8        0.1941
   9        0.1953
  10        0.1963
  11        0.9143
  12        0.9163
  13        0.9181
  14        0.9189
  15        1.6348
  16        1.6357
  17        3.0451
  18        3.0460
  19        3.0618
  20        3.0627
  21        3.0639
  22        3.0649
  23        3.6945
  24        3.6945
  25        3.7520
  26        3.7542
  27        3.8608
  28        3.8608
  29        4.4740
  30        5.0610
  31        5.0610
  32        5.2667
  33        5.2668
  34        5.3177
  35        5.8679
  36        5.8688
  37        5.8700
  38        5.8711
  39        5.9985
  40        6.0009
  41        6.5132
  42        6.5150
  43        6.5899
  44        6.5901
  45        6.5984
  46        6.6824
  47        7.3903
  48        7.3915
  49        8.0720
  50        8.6402
  51        8.6434
  52        8.6443
  53        8.6445
  54        8.6456
  55        8.7338
  56        8.7363
  57        8.8351
  58        8.8362
  59        9.4187
  60        9.4205
  61        9.4388
  62        9.4410
  63       10.2790
  64       10.2796
  65       10.6782
  66       10.6782
  67       10.7094
  68       10.7095
  69       10.7906
  70       10.7926
  71       10.8124
  72       10.8126
 
  0.5000000E+00  0.3333333E+00  0.0000000E+00  0.1851852E-01
   1       -2.4274
   2       -2.4246
   3       -1.6913
   4       -1.6885
   5       -0.2308
   6       -0.2297
   7       -0.2279
   8       -0.2268
   9        0.4946
  10        0.4957
  11        0.4974
  12        0.4985
  13        1.2145
  14        1.2174
  15        1.9289
  16        1.9303
  17        2.6430
  18        2.6444
  19        3.3394
  20        3.3423
  21        3.3555
  22        3.3568
  23        3.3584
  24        3.3597
  25        4.0578
  26        4.0581
  27        4.0591
  28        4.0595
  29        4.7776
  30        4.7777
  31        4.7791
  32        4.7791
  33        5.4563
  34        5.4576
  35        5.4623
  36        5.4632
  37        5.4651
  38        5.4662
  39        5.6002
  40        5.6033
  41        6.2825
  42        6.2856
  43        6.8575
  44        6.8601
  45        7.5682
  46        7.5684
  47        7.5697
  48        7.5699
  49        7.6053
  50        7.6068
  51        7.6608
  52        7.6635
  53        9.0187
  54        9.0218
  55        9.1090
  56        9.1119
  57        9.6121
  58        9.6121
  59        9.6137
  60        9.6137
  61        9.7047
  62        9.7070
  63       10.3544
  64       10.3576
  65       10.3895
  66       10.3919
  67       10.4779
  68       10.4791
  69       11.0773
  70       11.0817
  71       11.1387
  72       11.1536
 
  0.0000000E+00  0.5000000E+00  0.0000000E+00  0.9259259E-02
   1       -2.6722
   2       -2.6722
   3       -0.4763
   4       -0.4718
   5       -0.4713
   6       -0.4713
   7       -0.4713
   8       -0.4713
   9       -0.4708
  10       -0.4664
  11        1.6895
  12        1.6907
  13        1.6946
  14        1.6954
  15        1.6969
  16        1.6971
  17        1.6977
  18        1.6980
  19        1.6994
  20        1.7015
  21        3.8228
  22        3.8233
  23        3.8258
  24        3.8259
  25        3.8259
  26        3.8259
  27        3.8284
  28        3.8288
  29        5.3745
  30        5.3745
  31        5.3745
  32        5.3745
  33        5.9428
  34        5.9441
  35        5.9443
  36        5.9446
  37        5.9467
  38        5.9470
  39        5.9472
  40        5.9486
  41        6.6623
  42        6.6623
  43        6.6623
  44        6.6623
  45        7.4181
  46        7.4225
  47        7.4230
  48        7.4230
  49        7.4230
  50        7.4230
  51        7.4234
  52        7.4278
  53        8.8200
  54        8.8233
  55        8.8238
  56        8.8239
  57        8.8239
  58        8.8239
  59        8.8244
  60        8.8277
  61        9.4775
  62        9.4775
  63        9.4775
  64        9.4775
  65       10.2645
  66       10.2645
  67       10.8929
  68       10.8929
  69       10.8930
  70       10.8930
  71       11.5304
  72       11.5308
 
  0.1666667E+00  0.5000000E+00  0.0000000E+00  0.1851852E-01
   1       -2.6106
   2       -2.6106
   3       -1.1402
   4       -1.1402
   5       -0.4107
   6       -0.4106
   7       -0.4106
   8       -0.4106
   9        0.3150
  10        0.3150
  11        1.0382
  12        1.0382
  13        1.0382
  14        1.0382
  15        1.7505
  16        1.7505
  17        2.4719
  18        2.4719
  19        2.4719
  20        2.4719
  21        3.1770
  22        3.1770
  23        3.8844
  24        3.8844
  25        3.8844
  26        3.8844
  27        4.5216
  28        4.5216
  29        4.5877
  30        4.5877
  31        5.3034
  32        5.3035
  33        5.3035
  34        5.3035
  35        5.4313
  36        5.4313
  37        6.6163
  38        6.6163
  39        6.6163
  40        6.6163
  41        6.7017
  42        6.7018
  43        6.7018
  44        6.7018
  45        6.7178
  46        6.7179
  47        6.7963
  48        6.7964
  49        7.6198
  50        7.6198
  51        8.1642
  52        8.1642
  53        8.1865
  54        8.1865
  55        8.7004
  56        8.7004
  57        9.5346
  58        9.5346
  59        9.5609
  60        9.5609
  61        9.7334
  62        9.7334
  63        9.7334
  64        9.7334
  65       10.3191
  66       10.3191
  67       10.7405
  68       10.7405
  69       10.7405
  70       10.7406
  71       10.9049
  72       10.9489
 
  0.3333333E+00  0.5000000E+00  0.0000000E+00  0.1851852E-01
   1       -2.4260
   2       -2.4260
   3       -1.6899
   4       -1.6899
   5       -0.2288
   6       -0.2288
   7       -0.2288
   8       -0.2288
   9        0.4965
  10        0.4965
  11        0.4965
  12        0.4965
  13        1.2160
  14        1.2160
  15        1.9296
  16        1.9296
  17        2.6437
  18        2.6437
  19        3.3408
  20        3.3408
  21        3.3576
  22        3.3576
  23        3.3576
  24        3.3577
  25        4.0586
  26        4.0586
  27        4.0586
  28        4.0586
  29        4.7784
  30        4.7784
  31        4.7784
  32        4.7784
  33        5.4569
  34        5.4570
  35        5.4641
  36        5.4642
  37        5.4642
  38        5.4642
  39        5.6017
  40        5.6018
  41        6.2841
  42        6.2841
  43        6.8587
  44        6.8588
  45        7.5690
  46        7.5690
  47        7.5690
  48        7.5690
  49        7.6061
  50        7.6061
  51        7.6621
  52        7.6621
  53        9.0202
  54        9.0202
  55        9.1104
  56        9.1105
  57        9.6129
  58        9.6129
  59        9.6129
  60        9.6129
  61        9.7059
  62        9.7059
  63       10.3560
  64       10.3560
  65       10.3907
  66       10.3907
  67       10.4785
  68       10.4785
  69       11.0779
  70       11.0795
  71       11.1389
  72       11.1690
 
  0.5000000E+00  0.5000000E+00  0.0000000E+00  0.9259259E-02
   1       -2.1213
   2       -2.1192
   3       -2.1185
   4       -2.1164
   5        0.0703
   6        0.0724
   7        0.0734
   8        0.0736
   9        0.0741
  10        0.0743
  11        0.0753
  12        0.0774
  13        2.2238
  14        2.2256
  15        2.2272
  16        2.2275
  17        2.2276
  18        2.2279
  19        2.2295
  20        2.2313
  21        4.2632
  22        4.2647
  23        4.2654
  24        4.2659
  25        4.2659
  26        4.2664
  27        4.2670
  28        4.2685
  29        4.4538
  30        4.4540
  31        4.4549
  32        4.4556
  33        4.4557
  34        4.4565
  35        4.4575
  36        4.4576
  37        5.8832
  38        5.8856
  39        5.8863
  40        5.8887
  41        6.4065
  42        6.4075
  43        6.4082
  44        6.4093
  45        7.2756
  46        7.2767
  47        7.2779
  48        7.2791
  49        8.5410
  50        8.5419
  51        8.5420
  52        8.5424
  53        8.5432
  54        8.5436
  55        8.5437
  56        8.5447
  57        9.9858
  58        9.9895
  59        9.9909
  60        9.9912
  61        9.9913
  62        9.9916
  63        9.9929
  64        9.9966
  65       10.6935
  66       10.6950
  67       10.6964
  68       10.6966
  69       10.6970
  70       10.6972
  71       10.6986
  72       10.7001
 
  0.0000000E+00  0.1666667E+00  0.1666667E+00  0.1851852E-01
   1       -3.1041
   2       -1.6287
   3       -1.6287
   4       -0.8983
   5       -0.8950
   6       -0.1687
   7       -0.1687
   8       -0.1681
   9        0.5541
  10        0.5561
  11        0.5574
  12        0.5594
  13        1.2775
  14        1.2775
  15        1.9926
  16        1.9946
  17        1.9949
  18        1.9960
  19        1.9975
  20        1.9985
  21        2.7090
  22        3.3510
  23        3.3510
  24        3.4993
  25        3.4993
  26        4.0557
  27        4.0557
  28        4.8403
  29        4.8437
  30        4.9770
  31        5.4490
  32        5.4491
  33        6.0585
  34        6.0585
  35        6.2337
  36        6.2337
  37        6.2452
  38        6.3410
  39        6.3411
  40        6.8099
  41        6.8099
  42        7.1571
  43        7.1571
  44        7.5366
  45        7.5387
  46        7.5402
  47        7.5422
  48        7.7071
  49        7.7079
  50        7.7081
  51        7.7111
  52        7.7120
  53        8.4443
  54        8.4443
  55        8.9164
  56        8.9172
  57        8.9201
  58        8.9209
  59        9.0220
  60        9.0220
  61        9.0766
  62        9.0767
  63        9.1259
  64        9.2827
  65        9.2827
  66        9.5695
  67        9.5695
  68       10.0203
  69       10.0203
  70       10.4459
  71       10.5018
  72       10.5018
 
  0.1666667E+00  0.1666667E+00  0.1666667E+00  0.3703704E-01
   1       -3.0423
   2       -1.5691
   3       -1.5675
   4       -1.5661
   5       -0.1111
   6       -0.1084
   7       -0.1081
   8       -0.1076
   9       -0.1073
  10       -0.1046
  11        1.3345
  12        1.3365
  13        1.3373
  14        1.3375
  15        1.3384
  16        1.3385
  17        1.3409
  18        2.7659
  19        2.7675
  20        2.7681
  21        2.7687
  22        2.7692
  23        2.7708
  24        4.1134
  25        4.1140
  26        4.1146
  27        4.1960
  28        4.1967
  29        4.1974
  30        5.5024
  31        5.5038
  32        5.5051
  33        5.5051
  34        5.5063
  35        5.5077
  36        5.6029
  37        6.8949
  38        6.8952
  39        6.8966
  40        6.8967
  41        6.8978
  42        6.8983
  43        6.9040
  44        6.9055
  45        6.9071
  46        7.2146
  47        7.2152
  48        7.2159
  49        8.2849
  50        8.2858
  51        8.2868
  52        8.2868
  53        8.2879
  54        8.2887
  55        8.6093
  56        8.6100
  57        8.6111
  58        8.6111
  59        8.6121
  60        8.6129
  61        9.6621
  62        9.6630
  63        9.6639
  64       10.0323
  65       10.0330
  66       10.0339
  67       10.0889
  68       10.0901
  69       10.0909
  70       10.0909
  71       10.0916
  72       10.0929
 
  0.3333333E+00  0.1666667E+00  0.1666667E+00  0.3703704E-01
   1       -2.8571
   2       -2.1188
   3       -1.3843
   4       -1.3843
   5       -0.6534
   6       -0.6533
   7        0.0733
   8        0.0733
   9        0.0740
  10        0.7942
  11        0.7970
  12        0.7976
  13        0.7987
  14        1.5173
  15        1.5173
  16        2.2313
  17        2.2318
  18        2.2345
  19        2.2350
  20        2.9274
  21        2.9461
  22        3.5800
  23        3.6534
  24        3.6534
  25        3.7406
  26        4.2887
  27        4.2888
  28        4.3395
  29        4.3395
  30        4.9858
  31        4.9858
  32        5.0746
  33        5.0746
  34        5.6139
  35        5.6140
  36        5.7532
  37        5.8146
  38        5.8146
  39        6.3859
  40        6.3859
  41        6.4756
  42        7.0746
  43        7.0747
  44        7.1460
  45        7.1460
  46        7.3883
  47        7.3883
  48        7.7079
  49        7.7079
  50        7.7685
  51        7.7685
  52        8.1585
  53        8.1585
  54        8.5314
  55        8.7223
  56        8.8101
  57        8.8101
  58        9.1455
  59        9.1455
  60        9.5141
  61        9.5141
  62        9.8252
  63        9.8252
  64        9.9225
  65        9.9225
  66       10.4301
  67       10.4302
  68       10.5179
  69       10.5179
  70       10.8751
  71       10.8779
  72       10.9075
 
  0.5000000E+00  0.1666667E+00  0.1666667E+00  0.1851852E-01
   1       -2.5505
   2       -2.5476
   3       -1.0817
   4       -1.0797
   5       -1.0788
   6       -1.0769
   7        0.3727
   8        0.3748
   9        0.3749
  10        0.3758
  11        0.3769
  12        0.3783
  13        1.8089
  14        1.8105
  15        1.8152
  16        1.8154
  17        1.8177
  18        1.8186
  19        3.2351
  20        3.2356
  21        3.2366
  22        3.2368
  23        3.2396
  24        3.2424
  25        4.5780
  26        4.5783
  27        4.5810
  28        4.5812
  29        4.6431
  30        4.6436
  31        4.6445
  32        4.6449
  33        4.6603
  34        4.6618
  35        5.9813
  36        5.9832
  37        5.9842
  38        5.9861
  39        6.0605
  40        6.0612
  41        6.0619
  42        6.0626
  43        7.3626
  44        7.3632
  45        7.3656
  46        7.3662
  47        7.4545
  48        7.4560
  49        7.6660
  50        7.6667
  51        7.6688
  52        7.6695
  53        8.7645
  54        8.7650
  55        8.7663
  56        8.7668
  57        9.1048
  58        9.1056
  59        9.1077
  60        9.1084
  61       10.1108
  62       10.1116
  63       10.1127
  64       10.1134
  65       10.3681
  66       10.3694
  67       10.4505
  68       10.4526
  69       10.4536
  70       10.4557
  71       11.4337
  72       11.4500
 
  0.0000000E+00  0.3333333E+00  0.1666667E+00  0.3703704E-01
   1       -2.9188
   2       -2.1802
   3       -1.4453
   4       -0.7164
   5       -0.7142
   6       -0.7121
   7        0.0111
   8        0.0131
   9        0.0154
  10        0.7344
  11        0.7363
  12        0.7370
  13        0.7394
  14        1.4566
  15        1.4599
  16        2.1721
  17        2.1730
  18        2.1760
  19        2.8682
  20        2.8839
  21        2.8852
  22        2.8873
  23        2.8885
  24        3.5947
  25        4.2305
  26        4.2813
  27        4.3116
  28        4.3149
  29        4.9281
  30        4.9779
  31        4.9813
  32        5.1473
  33        5.6754
  34        5.7164
  35        5.7198
  36        5.8291
  37        6.3277
  38        6.3312
  39        6.3910
  40        6.3944
  41        6.4242
  42        6.5117
  43        7.0185
  44        7.0221
  45        7.0967
  46        7.1950
  47        7.3317
  48        7.7650
  49        7.7806
  50        7.7841
  51        7.8791
  52        7.8898
  53        8.0122
  54        8.5633
  55        8.5638
  56        8.5994
  57        8.6664
  58        9.2089
  59        9.4193