       N       E                     dE             d eps       ncg     rms          rms(c)
DAV:   1     0.113737757335E+03    0.11374E+03   -0.32426E+04  5760   0.104E+03
DAV:   2    -0.107615594576E+03   -0.22135E+03   -0.20607E+03  6760   0.136E+02
DAV:   3    -0.120132338346E+03   -0.12517E+02   -0.11886E+02  7200   0.258E+01
DAV:   4    -0.120372543413E+03   -0.24021E+00   -0.23823E+00  6728   0.377E+00
DAV:   5    -0.120375495849E+03   -0.29524E-02   -0.29503E-02  6808   0.489E-01    0.522E+00
DAV:   6    -0.119960040455E+03    0.41546E+00   -0.55608E-02  6568   0.725E-01    0.324E+00
DAV:   7    -0.119658832472E+03    0.30121E+00   -0.16489E-01  6360   0.117E+00    0.138E-01
DAV:   8    -0.119658909926E+03   -0.77454E-04   -0.13133E-03  6792   0.133E-01    0.469E-02
DAV:   9    -0.119658925094E+03   -0.15168E-04   -0.52236E-05  6704   0.201E-02    0.346E-03
DAV:  10    -0.119658925458E+03   -0.36347E-06   -0.24132E-06  6776   0.479E-03    0.182E-03
DAV:  11    -0.119658922591E+03    0.28670E-05   -0.21316E-07  6744   0.126E-03    0.668E-04
DAV:  12    -0.119658921744E+03    0.84664E-06   -0.24974E-08  4856   0.464E-04    0.152E-04
DAV:  13    -0.119658921479E+03    0.26541E-06   -0.24629E-09  3720   0.174E-04    0.318E-05
DAV:  14    -0.119658921474E+03    0.45607E-08   -0.41647E-10  3672   0.680E-05
   1 F= -.11965892E+03 E0= -.11965755E+03  d E =-.273651E-02
