  32  32   0   0
  0.1927700E+02  0.8512618E-09  0.8512618E-09  0.8512618E-09  0.5000000E-15
  1.000000000000000E-004
  CAR 
 unknown system                          
     13.02488392     -5.18368236  301      4.25436127      1.00000000
     -5.184  0.0000E+00  0.0000E+00
     -5.123  0.0000E+00  0.0000E+00
     -5.062  0.0000E+00  0.0000E+00
     -5.002  0.0000E+00  0.0000E+00
     -4.941  0.0000E+00  0.0000E+00
     -4.880  0.0000E+00  0.0000E+00
     -4.820  0.0000E+00  0.0000E+00
     -4.759  0.0000E+00  0.0000E+00
     -4.698  0.0000E+00  0.0000E+00
     -4.637  0.0000E+00  0.0000E+00
     -4.577  0.0000E+00  0.0000E+00
     -4.516  0.0000E+00  0.0000E+00
     -4.455  0.0000E+00  0.0000E+00
     -4.395  0.4482E-09  0.2720E-10
     -4.334  0.1049E+00  0.6366E-02
     -4.273  0.5734E+00  0.4117E-01
     -4.213  0.9648E+00  0.9973E-01
     -4.152  0.1522E+01  0.1921E+00
     -4.091  0.1590E+01  0.2886E+00
     -4.030  0.1494E+01  0.3793E+00
     -3.970  0.2121E+01  0.5081E+00
     -3.909  0.1211E+01  0.5816E+00
     -3.848  0.2496E+01  0.7331E+00
     -3.788  0.2182E+01  0.8656E+00
     -3.727  0.2957E+01  0.1045E+01
     -3.666  0.2252E+01  0.1182E+01
     -3.606  0.3527E+01  0.1396E+01
     -3.545  0.2755E+01  0.1563E+01
     -3.484  0.2506E+01  0.1715E+01
     -3.424  0.3945E+01  0.1955E+01
     -3.363  0.2933E+01  0.2133E+01
     -3.302  0.3394E+01  0.2339E+01
     -3.241  0.3375E+01  0.2544E+01
     -3.181  0.4982E+01  0.2846E+01
     -3.120  0.2864E+01  0.3020E+01
     -3.059  0.5212E+01  0.3336E+01
     -2.999  0.3182E+01  0.3529E+01
     -2.938  0.4850E+01  0.3824E+01
     -2.877  0.5414E+01  0.4152E+01
     -2.817  0.5602E+01  0.4493E+01
     -2.756  0.3484E+01  0.4704E+01
     -2.695  0.6722E+01  0.5112E+01
     -2.634  0.5501E+01  0.5446E+01
     -2.574  0.6335E+01  0.5831E+01
     -2.513  0.6201E+01  0.6207E+01
     -2.452  0.7420E+01  0.6658E+01
     -2.392  0.6218E+01  0.7035E+01
     -2.331  0.7460E+01  0.7488E+01
     -2.270  0.1008E+02  0.8100E+01
     -2.210  0.7711E+01  0.8569E+01
     -2.149  0.9023E+01  0.9116E+01
     -2.088  0.1313E+02  0.9913E+01
     -2.028  0.1515E+02  0.1083E+02
     -1.967  0.2261E+02  0.1221E+02
     -1.906  0.2507E+02  0.1373E+02
     -1.845  0.2178E+02  0.1505E+02
     -1.785  0.2383E+02  0.1650E+02
     -1.724  0.3024E+02  0.1833E+02
     -1.663  0.3561E+02  0.2049E+02
     -1.603  0.3761E+02  0.2278E+02
     -1.542  0.4861E+02  0.2573E+02
     -1.481  0.5446E+02  0.2903E+02
     -1.421  0.5619E+02  0.3244E+02
     -1.360  0.7159E+02  0.3679E+02
     -1.299  0.6765E+02  0.4089E+02
     -1.238  0.7791E+02  0.4562E+02
     -1.178  0.6359E+02  0.4948E+02
     -1.117  0.7532E+02  0.5406E+02
     -1.056  0.5725E+02  0.5753E+02
     -0.996  0.6843E+02  0.6168E+02
     -0.935  0.5607E+02  0.6509E+02
     -0.874  0.6442E+02  0.6900E+02
     -0.814  0.5538E+02  0.7236E+02
     -0.753  0.5549E+02  0.7573E+02
     -0.692  0.5047E+02  0.7879E+02
     -0.632  0.4206E+02  0.8135E+02
     -0.571  0.4598E+02  0.8414E+02
     -0.510  0.6199E+02  0.8790E+02
     -0.449  0.5552E+02  0.9127E+02
     -0.389  0.7826E+02  0.9602E+02
     -0.328  0.7133E+02  0.1004E+03
     -0.267  0.7995E+02  0.1052E+03
     -0.207  0.8563E+02  0.1104E+03
     -0.146  0.7378E+02  0.1149E+03
     -0.085  0.7446E+02  0.1194E+03
     -0.025  0.8236E+02  0.1244E+03
      0.036  0.8290E+02  0.1294E+03
      0.097  0.7453E+02  0.1340E+03
      0.157  0.8620E+02  0.1392E+03
      0.218  0.9785E+02  0.1451E+03
      0.279  0.9844E+02  0.1511E+03
      0.340  0.1120E+03  0.1579E+03
      0.400  0.1402E+03  0.1664E+03
      0.461  0.1370E+03  0.1747E+03
      0.522  0.9763E+02  0.1807E+03
      0.582  0.8464E+02  0.1858E+03
      0.643  0.7063E+02  0.1901E+03
      0.704  0.6585E+02  0.1941E+03
      0.764  0.6381E+02  0.1980E+03
      0.825  0.7070E+02  0.2022E+03
      0.886  0.6157E+02  0.2060E+03
      0.947  0.6207E+02  0.2097E+03
      1.007  0.6711E+02  0.2138E+03
      1.068  0.7836E+02  0.2186E+03
      1.129  0.8038E+02  0.2235E+03
      1.189  0.7865E+02  0.2282E+03
      1.250  0.8048E+02  0.2331E+03
      1.311  0.9845E+02  0.2391E+03
      1.371  0.8344E+02  0.2442E+03
      1.432  0.7845E+02  0.2489E+03
      1.493  0.7368E+02  0.2534E+03
      1.553  0.7210E+02  0.2578E+03
      1.614  0.6573E+02  0.2618E+03
      1.675  0.6423E+02  0.2657E+03
      1.736  0.6953E+02  0.2699E+03
      1.796  0.6573E+02  0.2739E+03
      1.857  0.6469E+02  0.2778E+03
      1.918  0.6284E+02  0.2816E+03
      1.978  0.7428E+02  0.2861E+03
      2.039  0.6801E+02  0.2902E+03
      2.100  0.8210E+02  0.2952E+03
      2.160  0.8241E+02  0.3002E+03
      2.221  0.1065E+03  0.3067E+03
      2.282  0.1267E+03  0.3144E+03
      2.343  0.1181E+03  0.3216E+03
      2.403  0.8626E+02  0.3268E+03
      2.464  0.7045E+02  0.3311E+03
      2.525  0.4285E+02  0.3337E+03
      2.585  0.3017E+02  0.3355E+03
      2.646  0.2071E+02  0.3368E+03
      2.707  0.6079E+01  0.3371E+03
      2.767  0.6972E+01  0.3376E+03
      2.828  0.7679E+01  0.3380E+03
      2.889  0.1725E+02  0.3391E+03
      2.949  0.6666E+01  0.3395E+03
      3.010  0.9081E+01  0.3400E+03
      3.071  0.5687E+01  0.3404E+03
      3.132  0.1523E+02  0.3413E+03
      3.192  0.7423E+01  0.3417E+03
      3.253  0.8147E+01  0.3422E+03
      3.314  0.9619E+01  0.3428E+03
      3.374  0.1234E+02  0.3436E+03
      3.435  0.8657E+01  0.3441E+03
      3.496  0.6283E+01  0.3445E+03
      3.556  0.9364E+01  0.3450E+03
      3.617  0.1470E+02  0.3459E+03
      3.678  0.9689E+01  0.3465E+03
      3.739  0.7341E+01  0.3470E+03
      3.799  0.6827E+01  0.3474E+03
      3.860  0.7431E+01  0.3478E+03
      3.921  0.1534E+02  0.3488E+03
      3.981  0.1067E+02  0.3494E+03
      4.042  0.8971E+01  0.3500E+03
      4.103  0.6782E+01  0.3504E+03
      4.163  0.8490E+01  0.3509E+03
      4.224  0.1190E+02  0.3516E+03
      4.285  0.1393E+02  0.3525E+03
      4.345  0.6064E+01  0.3528E+03
      4.406  0.8869E+01  0.3534E+03
      4.467  0.1038E+02  0.3540E+03
      4.528  0.1029E+02  0.3546E+03
      4.588  0.8393E+01  0.3551E+03
      4.649  0.1162E+02  0.3558E+03
      4.710  0.6555E+01  0.3562E+03
      4.770  0.1093E+02  0.3569E+03
      4.831  0.1170E+02  0.3576E+03
      4.892  0.6306E+01  0.3580E+03
      4.952  0.1180E+02  0.3587E+03
      5.013  0.7671E+01  0.3592E+03
      5.074  0.1080E+02  0.3598E+03
      5.135  0.8896E+01  0.3604E+03
      5.195  0.1011E+02  0.3610E+03
      5.256  0.9528E+01  0.3616E+03
      5.317  0.7843E+01  0.3620E+03
      5.377  0.1102E+02  0.3627E+03
      5.438  0.6661E+01  0.3631E+03
      5.499  0.1179E+02  0.3638E+03
      5.559  0.1120E+02  0.3645E+03
      5.620  0.7315E+01  0.3649E+03
      5.681  0.8186E+01  0.3654E+03
      5.741  0.9828E+01  0.3660E+03
      5.802  0.1015E+02  0.3667E+03
      5.863  0.8976E+01  0.3672E+03
      5.924  0.1046E+02  0.3678E+03
      5.984  0.8940E+01  0.3684E+03
      6.045  0.1036E+02  0.3690E+03
      6.106  0.7623E+01  0.3695E+03
      6.166  0.8319E+01  0.3700E+03
      6.227  0.9055E+01  0.3705E+03
      6.288  0.8638E+01  0.3710E+03
      6.348  0.1115E+02  0.3717E+03
      6.409  0.8599E+01  0.3722E+03
      6.470  0.5818E+01  0.3726E+03
      6.530  0.1047E+02  0.3732E+03
      6.591  0.1065E+02  0.3739E+03
      6.652  0.7759E+01  0.3744E+03
      6.713  0.6716E+01  0.3748E+03
      6.773  0.1471E+02  0.3757E+03
      6.834  0.1773E+02  0.3767E+03
      6.895  0.1722E+02  0.3778E+03
      6.955  0.1077E+02  0.3784E+03
      7.016  0.1141E+02  0.3791E+03
      7.077  0.1665E+02  0.3801E+03
      7.137  0.1167E+02  0.3808E+03
      7.198  0.1183E+02  0.3816E+03
      7.259  0.1056E+02  0.3822E+03
      7.320  0.1142E+02  0.3829E+03
      7.380  0.1253E+02  0.3837E+03
      7.441  0.9456E+01  0.3842E+03
      7.502  0.1063E+02  0.3849E+03
      7.562  0.1178E+02  0.3856E+03
      7.623  0.7024E+01  0.3860E+03
      7.684  0.9857E+01  0.3866E+03
      7.744  0.1257E+02  0.3874E+03
      7.805  0.9044E+01  0.3879E+03
      7.866  0.8849E+01  0.3885E+03
      7.926  0.6967E+01  0.3889E+03
      7.987  0.9065E+01  0.3894E+03
      8.048  0.1147E+02  0.3901E+03
      8.109  0.5295E+01  0.3905E+03
      8.169  0.9709E+01  0.3910E+03
      8.230  0.5950E+01  0.3914E+03
      8.291  0.1207E+02  0.3921E+03
      8.351  0.8126E+01  0.3926E+03
      8.412  0.6582E+01  0.3930E+03
      8.473  0.9222E+01  0.3936E+03
      8.533  0.8525E+01  0.3941E+03
      8.594  0.1187E+02  0.3948E+03
      8.655  0.1151E+02  0.3955E+03
      8.716  0.1217E+02  0.3963E+03
      8.776  0.1083E+02  0.3969E+03
      8.837  0.1156E+02  0.3976E+03
      8.898  0.1111E+02  0.3983E+03
      8.958  0.1033E+02  0.3989E+03
      9.019  0.1496E+02  0.3998E+03
      9.080  0.1687E+02  0.4009E+03
      9.140  0.1464E+02  0.4017E+03
      9.201  0.9283E+01  0.4023E+03
      9.262  0.1314E+02  0.4031E+03
      9.322  0.1048E+02  0.4037E+03
      9.383  0.1380E+02  0.4046E+03
      9.444  0.1203E+02  0.4053E+03
      9.505  0.1113E+02  0.4060E+03
      9.565  0.1060E+02  0.4066E+03
      9.626  0.1095E+02  0.4073E+03
      9.687  0.1483E+02  0.4082E+03
      9.747  0.1341E+02  0.4090E+03
      9.808  0.7797E+01  0.4095E+03
      9.869  0.1417E+02  0.4103E+03
      9.929  0.7254E+01  0.4108E+03
      9.990  0.9743E+01  0.4114E+03
     10.051  0.1371E+02  0.4122E+03
     10.112  0.1074E+02  0.4129E+03
     10.172  0.5933E+01  0.4132E+03
     10.233  0.8780E+01  0.4138E+03
     10.294  0.1340E+02  0.4146E+03
     10.354  0.7013E+01  0.4150E+03
     10.415  0.7554E+01  0.4154E+03
     10.476  0.1112E+02  0.4161E+03
     10.536  0.9030E+01  0.4167E+03
     10.597  0.7728E+01  0.4171E+03
     10.658  0.9670E+01  0.4177E+03
     10.718  0.1473E+02  0.4186E+03
     10.779  0.8130E+01  0.4191E+03
     10.840  0.5865E+01  0.4195E+03
     10.901  0.9327E+01  0.4200E+03
     10.961  0.9542E+01  0.4206E+03
     11.022  0.8908E+01  0.4212E+03
     11.083  0.1032E+02  0.4218E+03
     11.143  0.7754E+01  0.4223E+03
     11.204  0.7578E+01  0.4227E+03
     11.265  0.8501E+01  0.4232E+03
     11.325  0.3567E+01  0.4234E+03
     11.386  0.2374E+01  0.4236E+03
     11.447  0.2229E+01  0.4237E+03
     11.508  0.2600E+00  0.4237E+03
     11.568  0.2501E+01  0.4239E+03
     11.629  0.8395E+00  0.4239E+03
     11.690  0.6028E+00  0.4240E+03
     11.750  0.1751E+00  0.4240E+03
     11.811  0.0000E+00  0.4240E+03
     11.872  0.1224E-02  0.4240E+03
     11.932  0.1132E+00  0.4240E+03
     11.993  0.0000E+00  0.4240E+03
     12.054  0.0000E+00  0.4240E+03
     12.114  0.0000E+00  0.4240E+03
     12.175  0.1717E-04  0.4240E+03
     12.236  0.1905E-01  0.4240E+03
     12.297  0.0000E+00  0.4240E+03
     12.357  0.0000E+00  0.4240E+03
     12.418  0.0000E+00  0.4240E+03
     12.479  0.0000E+00  0.4240E+03
     12.539  0.0000E+00  0.4240E+03
     12.600  0.0000E+00  0.4240E+03
     12.661  0.0000E+00  0.4240E+03
     12.721  0.0000E+00  0.4240E+03
     12.782  0.0000E+00  0.4240E+03
     12.843  0.0000E+00  0.4240E+03
     12.903  0.0000E+00  0.4240E+03
     12.964  0.0000E+00  0.4240E+03
     13.025  0.0000E+00  0.4240E+03
