   32   32    1    1
  0.1927700E+02  0.8512618E-09  0.8512618E-09  0.8512618E-09  0.5000000E-15
  1.000000000000000E-004
  CAR 
 unknown system                          
  352  196  212
 
  0.0000000E+00  0.0000000E+00  0.0000000E+00  0.5787037E-03
   1       -4.3560
   2       -2.1625
   3       -2.1593
   4       -2.1593
   5       -2.1593
   6       -2.1593
   7       -2.1562
   8       -2.0350
   9       -2.0350
  10       -2.0350
  11       -2.0350
  12       -1.7846
  13       -1.7846
  14       -1.7846
  15       -1.5385
  16       -1.5385
  17       -1.5385
  18       -0.9900
  19       -0.9886
  20       -0.9886
  21       -0.9870
  22       -0.9868
  23       -0.9868
  24       -0.9868
  25       -0.9868
  26       -0.9866
  27       -0.9849
  28       -0.9849
  29       -0.9835
  30       -0.8561
  31       -0.8541
  32       -0.8541
  33       -0.8541
  34       -0.8541
  35       -0.8522
  36       -0.7669
  37       -0.7650
  38       -0.7650
  39       -0.7650
  40       -0.7650
  41       -0.7630
  42       -0.2721
  43       -0.2697
  44       -0.2697
  45       -0.2685
  46       -0.2685
  47       -0.2685
  48       -0.2685
  49       -0.2685
  50       -0.2684
  51       -0.2674
  52       -0.2674
  53       -0.2651
  54       -0.2107
  55       -0.2107
  56       -0.2085
  57       -0.2085
  58       -0.2085
  59       -0.2085
  60       -0.2085
  61       -0.2084
  62       -0.2084
  63       -0.2083
  64       -0.2062
  65       -0.2062
  66        0.0335
  67        0.0368
  68        0.0369
  69        0.0369
  70        0.0372
  71        0.0372
  72        0.0372
  73        0.0372
  74        0.0374
  75        0.0374
  76        0.0375
  77        0.0408
  78        0.1113
  79        0.1113
  80        0.1113
  81        0.1113
  82        0.1113
  83        0.1113
  84        0.1113
  85        0.1114
  86        0.1341
  87        0.1341
  88        0.1342
  89        0.7446
  90        0.7466
  91        0.7466
  92        0.7466
  93        0.7466
  94        0.7486
  95        0.8930
  96        0.8938
  97        0.8949
  98        0.8949
  99        0.8954
 100        0.8954
 101        0.8954
 102        0.8954
 103        0.8960
 104        0.8960
 105        0.8971
 106        0.8977
 107        1.1421
 108        1.1421
 109        1.1445
 110        1.1445
 111        1.1447
 112        1.1447
 113        1.1447
 114        1.1448
 115        1.1449
 116        1.1449
 117        1.1472
 118        1.1472
 119        1.2693
 120        1.2709
 121        1.2709
 122        1.2709
 123        1.2709
 124        1.2726
 125        1.3535
 126        1.3539
 127        1.3591
 128        1.3591
 129        1.3614
 130        1.3618
 131        1.3618
 132        1.3618
 133        1.3618
 134        1.3619
 135        1.3622
 136        1.3623
 137        1.3647
 138        1.3647
 139        1.7997
 140        1.8009
 141        1.8009
 142        1.8009
 143        1.8009
 144        1.8021
 145        2.2814
 146        2.2814
 147        2.2814
 148        2.3197
 149        2.3197
 150        2.3197
 151        2.3197
 152        2.3197
 153        2.3197
 154        2.3197
 155        2.3197
 156        2.5759
 157        2.5762
 158        2.5762
 159        2.5762
 160        2.5762
 161        2.5762
 162        2.5776
 163        2.5776
 164        2.5776
 165        2.5776
 166        2.5777
 167        2.5779
 168        3.8444
 169        3.8450
 170        3.8450
 171        3.8451
 172        3.8516
 173        3.8521
 174        3.8521
 175        3.8526
 176        3.8530
 177        3.8530
 178        3.8530
 179        3.8532
 180        3.8535
 181        3.8543
 182        3.8543
 183        3.8553
 184        5.6237
 185        5.6237
 186        5.6237
 187        6.7422
 188        6.7422
 189        6.7422
 190        6.7422
 191        8.4305
 192        8.4306
 193        8.4307
 194        8.4307
 195        8.4307
 196        8.4309
 197        9.1516
 198        9.1517
 199        9.1517
 200       10.1944
 201       10.1944
 202       10.1974
 203       10.1974
 204       10.1979
 205       10.1979
 206       10.1979
 207       10.1979
 208       10.1983
 209       10.1983
 210       10.2013
 211       10.2013
 212       12.1972
 
  0.8333333E-01  0.0000000E+00  0.0000000E+00  0.1157407E-02
   1       -4.3378
   2       -2.4218
   3       -2.1462
   4       -2.1461
   5       -2.1461
   6       -2.1461
   7       -2.0252
   8       -2.0252
   9       -2.0252
  10       -2.0252
  11       -1.9347
  12       -1.7788
  13       -1.7730
  14       -1.7730
  15       -1.5323
  16       -1.5292
  17       -1.5292
  18       -1.0814
  19       -1.0814
  20       -1.0814
  21       -1.0813
  22       -1.0374
  23       -1.0373
  24       -1.0373
  25       -1.0373
  26       -0.9056
  27       -0.9056
  28       -0.9056
  29       -0.9056
  30       -0.8781
  31       -0.8780
  32       -0.8721
  33       -0.8460
  34       -0.8460
  35       -0.8460
  36       -0.8459
  37       -0.7597
  38       -0.7597
  39       -0.7597
  40       -0.7596
  41       -0.6557
  42       -0.4174
  43       -0.4174
  44       -0.3110
  45       -0.3109
  46       -0.3109
  47       -0.3108
  48       -0.2358
  49       -0.2352
  50       -0.2352
  51       -0.2352
  52       -0.2285
  53       -0.2285
  54       -0.2285
  55       -0.2281
  56       -0.2181
  57       -0.2180
  58       -0.2180
  59       -0.2180
  60       -0.2075
  61       -0.2075
  62       -0.2075
  63       -0.2072
  64       -0.0149
  65       -0.0149
  66       -0.0149
  67       -0.0149
  68        0.0165
  69        0.0165
  70        0.0595
  71        0.0602
  72        0.0602
  73        0.0602
  74        0.0670
  75        0.0670
  76        0.0670
  77        0.0678
  78        0.1076
  79        0.1076
  80        0.1076
  81        0.1077
  82        0.1190
  83        0.1190
  84        0.1190
  85        0.1190
  86        0.1258
  87        0.1417
  88        0.1417
  89        0.6984
  90        0.6985
  91        0.6985
  92        0.6985
  93        0.7259
  94        0.8403
  95        0.8583
  96        0.8584
  97        0.8584
  98        0.8584
  99        0.8956
 100        0.8956
 101        0.8956
 102        0.8957
 103        0.9390
 104        0.9390
 105        0.9391
 106        0.9391
 107        0.9956
 108        0.9956
 109        1.1442
 110        1.1442
 111        1.1442
 112        1.1443
 113        1.1856
 114        1.1856
 115        1.1856
 116        1.1856
 117        1.2746
 118        1.2746
 119        1.2746
 120        1.2747
 121        1.2899
 122        1.2899
 123        1.2901
 124        1.2901
 125        1.2968
 126        1.2969
 127        1.3007
 128        1.3007
 129        1.3450
 130        1.3575
 131        1.4018
 132        1.4018
 133        1.4018
 134        1.4019
 135        1.4511
 136        1.4511
 137        1.4512
 138        1.4512
 139        1.7408
 140        1.8122
 141        1.8122
 142        1.8122
 143        1.8122
 144        1.8616
 145        2.2686
 146        2.2687
 147        2.2687
 148        2.2687
 149        2.2690
 150        2.2690
 151        2.2771
 152        2.3090
 153        2.3090
 154        2.3090
 155        2.3090
 156        2.5217
 157        2.5217
 158        2.5608
 159        2.5608
 160        2.5608
 161        2.5608
 162        2.5608
 163        2.5608
 164        2.5760
 165        2.5762
 166        2.5776
 167        2.5778
 168        3.5841
 169        3.5841
 170        3.5841
 171        3.5841
 172        3.8479
 173        3.8484
 174        3.8488
 175        3.8488
 176        3.8537
 177        3.8537
 178        3.8540
 179        3.8545
 180        4.1437
 181        4.1437
 182        4.1437
 183        4.1437
 184        5.4479
 185        5.6918
 186        5.6918
 187        6.8143
 188        6.8143
 189        6.8143
 190        6.8143
 191        8.2998
 192        8.2998
 193        8.2998
 194        8.2998
 195        8.4418
 196        8.4418
 197        9.1384
 198        9.1384
 199        9.3596
 200        9.7119
 201        9.7119
 202       10.2305
 203       10.2305
 204       10.2305
 205       10.2305
 206       10.2428
 207       10.2428
 208       10.2428
 209       10.2428
 210       10.6787
 211       10.6787
 212       11.8877
 
  0.1666667E+00  0.0000000E+00  0.0000000E+00  0.1157407E-02
   1       -4.2832
   2       -2.7012
   3       -2.1071
   4       -2.1070
   5       -2.1070
   6       -2.1070
   7       -1.9958
   8       -1.9958
   9       -1.9958
  10       -1.9958
  11       -1.7668
  12       -1.7617
  13       -1.7384
  14       -1.7384
  15       -1.5138
  16       -1.5010
  17       -1.5010
  18       -1.1918
  19       -1.1918
  20       -1.1918
  21       -1.1917
  22       -1.1556
  23       -1.1556
  24       -1.1556
  25       -1.1556
  26       -0.9755
  27       -0.9450
  28       -0.9449
  29       -0.8342
  30       -0.8341
  31       -0.8341
  32       -0.8341
  33       -0.8221
  34       -0.8221
  35       -0.8221
  36       -0.8221
  37       -0.7439
  38       -0.7439
  39       -0.7439
  40       -0.7438
  41       -0.6096
  42       -0.6096
  43       -0.5462
  44       -0.3610
  45       -0.3610
  46       -0.3610
  47       -0.3609
  48       -0.2453
  49       -0.2453
  50       -0.2453
  51       -0.2453
  52       -0.2119
  53       -0.2112
  54       -0.2112
  55       -0.2112
  56       -0.2048
  57       -0.2048
  58       -0.2048
  59       -0.2042
  60       -0.1575
  61       -0.1575
  62       -0.1575
  63       -0.1574
  64       -0.0918
  65       -0.0918
  66       -0.0918
  67       -0.0918
  68        0.0650
  69        0.0651
  70        0.0651
  71        0.0651
  72        0.0965
  73        0.0965
  74        0.0966
  75        0.0966
  76        0.1009
  77        0.1420
  78        0.1420
  79        0.1420
  80        0.1421
  81        0.1643
  82        0.1643
  83        0.1718
  84        0.1718
  85        0.1718
  86        0.1718
  87        0.2568
  88        0.2568
  89        0.5950
  90        0.5950
  91        0.5950
  92        0.5950
  93        0.7556
  94        0.7726
  95        0.7726
  96        0.7726
  97        0.7726
  98        0.8549
  99        0.8549
 100        0.9370
 101        0.9370
 102        0.9371
 103        0.9371
 104        1.0126
 105        1.0126
 106        1.0126
 107        1.0126
 108        1.0276
 109        1.1429
 110        1.1429
 111        1.1429
 112        1.1429
 113        1.2352
 114        1.2352
 115        1.2353
 116        1.2353
 117        1.2603
 118        1.2604
 119        1.2604
 120        1.2604
 121        1.2845
 122        1.2846
 123        1.2846
 124        1.2846
 125        1.3188
 126        1.3678
 127        1.3692
 128        1.3700
 129        1.4606
 130        1.4606
 131        1.4960
 132        1.4961
 133        1.4961
 134        1.4961
 135        1.5568
 136        1.5568
 137        1.5568
 138        1.5568
 139        1.6822
 140        1.8532
 141        1.8532
 142        1.8532
 143        1.8532
 144        1.9218
 145        2.1264
 146        2.1264
 147        2.1264
 148        2.1264
 149        2.2320
 150        2.2320
 151        2.2644
 152        2.2771
 153        2.2771
 154        2.2771
 155        2.2771
 156        2.3715
 157        2.3715
 158        2.5116
 159        2.5116
 160        2.5116
 161        2.5116
 162        2.5154
 163        2.5154
 164        2.5760
 165        2.5763
 166        2.5775
 167        2.5778
 168        3.3319
 169        3.3319
 170        3.3319
 171        3.3319
 172        3.8539
 173        3.8547
 174        3.8555
 175        3.8555
 176        3.8565
 177        3.8565
 178        3.8573
 179        3.8581
 180        4.4615
 181        4.4615
 182        4.4615
 183        4.4615
 184        5.0108
 185        5.8828
 186        5.8828
 187        7.0221
 188        7.0221
 189        7.0221
 190        7.0221
 191        7.9657
 192        7.9657
 193        7.9657
 194        7.9657
 195        8.4747
 196        8.4747
 197        9.0997
 198        9.0997
 199        9.2248
 200        9.2248
 201        9.8935
 202       10.3273
 203       10.3273
 204       10.3273
 205       10.3273
 206       10.3423
 207       10.3423
 208       10.3423
 209       10.3423
 210       11.1502
 211       11.1517
 212       11.2943
 
  0.2500000E+00  0.0000000E+00  0.0000000E+00  0.1157407E-02
   1       -4.1928
   2       -2.9806
   3       -2.0431
   4       -2.0431
   5       -2.0431
   6       -2.0431
   7       -1.9472
   8       -1.9472
   9       -1.9472
  10       -1.9472
  11       -1.7350
  12       -1.6819
  13       -1.6818
  14       -1.6627
  15       -1.4832
  16       -1.4542
  17       -1.4542
  18       -1.3171
  19       -1.3171
  20       -1.3171
  21       -1.3170
  22       -1.2967
  23       -1.2967
  24       -1.2966
  25       -1.2966
  26       -1.0735
  27       -1.0431
  28       -1.0431
  29       -0.7848
  30       -0.7848
  31       -0.7843
  32       -0.7842
  33       -0.7839
  34       -0.7839
  35       -0.7695
  36       -0.7694
  37       -0.7694
  38       -0.7694
  39       -0.7180
  40       -0.7180
  41       -0.7180
  42       -0.7180
  43       -0.4384
  44       -0.4166
  45       -0.4165
  46       -0.4165
  47       -0.4165
  48       -0.2857
  49       -0.2857
  50       -0.2857
  51       -0.2857
  52       -0.2016
  53       -0.2008
  54       -0.2008
  55       -0.2007
  56       -0.1958
  57       -0.1958
  58       -0.1958
  59       -0.1949
  60       -0.1821
  61       -0.1821
  62       -0.1820
  63       -0.1820
  64       -0.1052
  65       -0.1052
  66       -0.1052
  67       -0.1052
  68        0.0601
  69        0.0700
  70        0.0701
  71        0.0701
  72        0.0701
  73        0.0789
  74        0.0789
  75        0.0790
  76        0.0791
  77        0.1801
  78        0.1801
  79        0.1801
  80        0.1801
  81        0.2020
  82        0.2020
  83        0.3549
  84        0.3549
  85        0.3549
  86        0.3549
  87        0.4795
  88        0.4795
  89        0.4795
  90        0.4795
  91        0.5110
  92        0.5110
  93        0.6701
  94        0.6702
  95        0.6702
  96        0.6702
  97        0.7241
  98        0.7241
  99        0.8169
 100        1.0052
 101        1.0052
 102        1.0053
 103        1.0053
 104        1.0965
 105        1.0965
 106        1.0965
 107        1.0965
 108        1.1412
 109        1.1412
 110        1.1413
 111        1.1413
 112        1.1958
 113        1.1958
 114        1.1958
 115        1.1958
 116        1.2760
 117        1.2956
 118        1.2957
 119        1.2957
 120        1.2957
 121        1.3115
 122        1.3119
 123        1.3119
 124        1.3119
 125        1.3167
 126        1.3868
 127        1.4759
 128        1.4759
 129        1.6119
 130        1.6121
 131        1.6121
 132        1.6121
 133        1.6226
 134        1.6226
 135        1.6263
 136        1.6766
 137        1.6766
 138        1.6766
 139        1.6766
 140        1.9175
 141        1.9175
 142        1.9175
 143        1.9175
 144        1.9385
 145        1.9385
 146        1.9385
 147        1.9385
 148        1.9805
 149        2.1542
 150        2.1542
 151        2.1712
 152        2.1712
 153        2.2250
 154        2.2250
 155        2.2250
 156        2.2250
 157        2.2435
 158        2.4335
 159        2.4335
 160        2.4335
 161        2.4335
 162        2.4419
 163        2.4419
 164        2.5761
 165        2.5764
 166        2.5774
 167        2.5777
 168        3.0925
 169        3.0925
 170        3.0925
 171        3.0925
 172        3.8578
 173        3.8582
 174        3.8585
 175        3.8585
 176        3.8639
 177        3.8639
 178        3.8641
 179        3.8645
 180        4.4516
 181        4.8114
 182        4.8114
 183        4.8114
 184        4.8114
 185        6.1679
 186        6.1679
 187        7.3452
 188        7.3452
 189        7.3452
 190        7.3453
 191        7.5243
 192        7.5243
 193        7.5243
 194        7.5243
 195        8.5278
 196        8.5278
 197        8.7402
 198        8.7402
 199        9.0386
 200        9.0386
 201       10.4535
 202       10.4535
 203       10.4536
 204       10.4536
 205       10.4846
 206       10.4846
 207       10.4846
 208       10.4846
 209       10.6152
 210       10.6466
 211       10.6466
 212       10.6467
 
  0.3333333E+00  0.0000000E+00  0.0000000E+00  0.1157407E-02
   1       -4.0672
   2       -3.2480
   3       -1.9561
   4       -1.9561
   5       -1.9561
   6       -1.9561
   7       -1.8796
   8       -1.8796
   9       -1.8796
  10       -1.8796
  11       -1.7012
  12       -1.6161
  13       -1.6048
  14       -1.6048
  15       -1.4526
  16       -1.4526
  17       -1.4526
  18       -1.4526
  19       -1.4409
  20       -1.4384
  21       -1.4383
  22       -1.4383
  23       -1.4382
  24       -1.3886
  25       -1.3886
  26       -1.1648
  27       -1.1590
  28       -1.1590
  29       -0.9417
  30       -0.9417
  31       -0.7361
  32       -0.7360
  33       -0.7360
  34       -0.7360
  35       -0.7120
  36       -0.7120
  37       -0.7120
  38       -0.7119
  39       -0.6827
  40       -0.6827
  41       -0.6827
  42       -0.6827
  43       -0.4749
  44       -0.4749
  45       -0.4749
  46       -0.4749
  47       -0.3342
  48       -0.3322
  49       -0.3322
  50       -0.3322
  51       -0.3321
  52       -0.2725
  53       -0.2725
  54       -0.2725
  55       -0.2725
  56       -0.1964
  57       -0.1958
  58       -0.1958
  59       -0.1958
  60       -0.1877
  61       -0.1877
  62       -0.1877
  63       -0.1871
  64       -0.0670
  65       -0.0670
  66       -0.0670
  67       -0.0670
  68        0.0045
  69        0.0558
  70        0.0558
  71        0.0558
  72        0.0558
  73        0.0893
  74        0.0894
  75        0.0894
  76        0.0894
  77        0.2326
  78        0.2326
  79        0.2326
  80        0.2326
  81        0.2544
  82        0.2544
  83        0.3691
  84        0.3691
  85        0.3691
  86        0.3691
  87        0.5662
  88        0.5662
  89        0.5662
  90        0.5662
  91        0.5872
  92        0.5872
  93        0.5872
  94        0.5872
  95        0.6045
  96        0.6045
  97        0.7774
  98        0.7774
  99        0.8957
 100        1.0849
 101        1.0849
 102        1.0849
 103        1.0849
 104        1.1400
 105        1.1400
 106        1.1400
 107        1.1401
 108        1.1693
 109        1.1693
 110        1.1693
 111        1.1693
 112        1.1741
 113        1.1742
 114        1.1742
 115        1.1742
 116        1.2183
 117        1.3023
 118        1.3023
 119        1.3023
 120        1.3023
 121        1.3199
 122        1.3199
 123        1.3199
 124        1.3199
 125        1.4120
 126        1.5735
 127        1.6022
 128        1.6023
 129        1.6675
 130        1.6675
 131        1.6675
 132        1.6675
 133        1.7004
 134        1.7338
 135        1.7338
 136        1.7338
 137        1.7338
 138        1.7837
 139        1.7837
 140        1.8069
 141        1.8069
 142        1.8069
 143        1.8069
 144        1.8972
 145        1.8972
 146        2.0366
 147        2.0720
 148        2.0720
 149        2.0720
 150        2.0720
 151        2.0880
 152        2.0881
 153        2.1542
 154        2.1542
 155        2.1542
 156        2.1543
 157        2.2149
 158        2.3314
 159        2.3314
 160        2.3314
 161        2.3314
 162        2.3437
 163        2.3437
 164        2.5762
 165        2.5765
 166        2.5772
 167        2.5776
 168        2.8634
 169        2.8634
 170        2.8634
 171        2.8634
 172        3.8523
 173        3.8618
 174        3.8620
 175        3.8620
 176        3.8623
 177        3.8684
 178        3.8684
 179        3.8686
 180        3.8692
 181        5.1963
 182        5.1963
 183        5.1963
 184        5.1963
 185        6.5190
 186        6.5190
 187        7.0397
 188        7.0397
 189        7.0397
 190        7.0398
 191        7.7607
 192        7.7607
 193        7.7607
 194        7.7607
 195        8.2623
 196        8.2623
 197        8.5984
 198        8.5984
 199        8.9599
 200        8.9599
 201       10.0021
 202       10.0021
 203       10.0022
 204       10.0022
 205       10.5667
 206       10.5667
 207       10.5668
 208       10.5668
 209       10.6974
 210       10.6974
 211       10.6974
 212       10.6974
 
  0.4166667E+00  0.0000000E+00  0.0000000E+00  0.1157407E-02
   1       -3.9078
   2       -3.4950
   3       -1.8490
   4       -1.8490
   5       -1.8490
   6       -1.8490
   7       -1.7937
   8       -1.7936
   9       -1.7936
  10       -1.7936
  11       -1.6645
  12       -1.6110
  13       -1.5913
  14       -1.5913
  15       -1.5913
  16       -1.5912
  17       -1.5711
  18       -1.5711
  19       -1.5711
  20       -1.5711
  21       -1.5098
  22       -1.5098
  23       -1.3870
  24       -1.3045
  25       -1.3045
  26       -1.2811
  27       -1.2811
  28       -1.2482
  29       -1.0809
  30       -1.0809
  31       -0.6869
  32       -0.6867
  33       -0.6867
  34       -0.6867
  35       -0.6686
  36       -0.6686
  37       -0.6686
  38       -0.6685
  39       -0.6392
  40       -0.6392
  41       -0.6392
  42       -0.6391
  43       -0.5332
  44       -0.5331
  45       -0.5331
  46       -0.5331
  47       -0.3728
  48       -0.3727
  49       -0.3727
  50       -0.3727
  51       -0.3478
  52       -0.3478
  53       -0.3478
  54       -0.3477
  55       -0.2358
  56       -0.1916
  57       -0.1908
  58       -0.1908
  59       -0.1908
  60       -0.1853
  61       -0.1852
  62       -0.1852
  63       -0.1844
  64       -0.0645
  65       -0.0335
  66       -0.0335
  67       -0.0335
  68       -0.0335
  69        0.0285
  70        0.0285
  71        0.0285
  72        0.0285
  73        0.1290
  74        0.1290
  75        0.1290
  76        0.1291
  77        0.2711
  78        0.2711
  79        0.2711
  80        0.2712
  81        0.2988
  82        0.2988
  83        0.2988
  84        0.2988
  85        0.3213
  86        0.3213
  87        0.4675
  88        0.4675
  89        0.4675
  90        0.4675
  91        0.4969
  92        0.4969
  93        0.8461
  94        0.8461
  95        0.8461
  96        0.8461
  97        0.9817
  98        1.0537
  99        1.0537
 100        1.1404
 101        1.1404
 102        1.1405
 103        1.1405
 104        1.1477
 105        1.1529
 106        1.1529
 107        1.1530
 108        1.1530
 109        1.1646
 110        1.1647
 111        1.1647
 112        1.1647
 113        1.2356
 114        1.2357
 115        1.2357
 116        1.2357
 117        1.2905
 118        1.2905
 119        1.2906
 120        1.2906
 121        1.2979
 122        1.2979
 123        1.2980
 124        1.2981
 125        1.3965
 126        1.3965
 127        1.3965
 128        1.3965
 129        1.4437
 130        1.5251
 131        1.6203
 132        1.6203
 133        1.7356
 134        1.7356
 135        1.8533
 136        1.8533
 137        1.8533
 138        1.8533
 139        1.9402
 140        1.9402
 141        1.9431
 142        1.9431
 143        1.9431
 144        1.9431
 145        1.9849
 146        1.9850
 147        2.0669
 148        2.0669
 149        2.0669
 150        2.0669
 151        2.0891
 152        2.1637
 153        2.1791
 154        2.2114
 155        2.2114
 156        2.2114
 157        2.2114
 158        2.2244
 159        2.2244
 160        2.2421
 161        2.2422
 162        2.2422
 163        2.2422
 164        2.5762
 165        2.5767
 166        2.5771
 167        2.5776
 168        2.6440
 169        2.6440
 170        2.6440
 171        2.6440
 172        3.2576
 173        3.8649
 174        3.8653
 175        3.8656
 176        3.8656
 177        3.8698
 178        3.8698
 179        3.8700
 180        3.8705
 181        5.6167
 182        5.6167
 183        5.6167
 184        5.6167
 185        6.5480
 186        6.5480
 187        6.5480
 188        6.5480
 189        6.9156
 190        6.9156
 191        7.7952
 192        7.7952
 193        8.2481
 194        8.2481
 195        8.2481
 196        8.2481
 197        8.6825
 198        8.6825
 199        8.8698
 200        8.8698
 201        9.3801
 202        9.3801
 203        9.3802
 204        9.3802
 205       10.6871
 206       10.6871
 207       10.6871
 208       10.6871
 209       10.9600
 210       10.9605
 211       10.9713
 212       10.9760
 
  0.5000000E+00  0.0000000E+00  0.0000000E+00  0.5787037E-03
   1       -3.7177
   2       -3.7146
   3       -1.7289
   4       -1.7265
   5       -1.7262
   6       -1.7262
   7       -1.7250
   8       -1.7250
   9       -1.7247
  10       -1.7224
  11       -1.6919
  12       -1.6919
  13       -1.6913
  14       -1.6912
  15       -1.6895
  16       -1.6893
  17       -1.6888
  18       -1.6888
  19       -1.6321
  20       -1.6306
  21       -1.4020
  22       -1.4011
  23       -1.3995
  24       -1.3986
  25       -1.3237
  26       -1.3214
  27       -1.2031
  28       -1.2031
  29       -1.2006
  30       -1.2006
  31       -0.6591
  32       -0.6571
  33       -0.6571
  34       -0.6571
  35       -0.6570
  36       -0.6570
  37       -0.6569
  38       -0.6550
  39       -0.5903
  40       -0.5899
  41       -0.5899
  42       -0.5889
  43       -0.5884
  44       -0.5874
  45       -0.5874
  46       -0.5871
  47       -0.3861
  48       -0.3858
  49       -0.3858
  50       -0.3853
  51       -0.3849
  52       -0.3844
  53       -0.3844
  54       -0.3841
  55       -0.1892
  56       -0.1874
  57       -0.1874
  58       -0.1871
  59       -0.1866
  60       -0.1863
  61       -0.1863
  62       -0.1845
  63       -0.1456
  64       -0.1447
  65       -0.0023
  66       -0.0020
  67       -0.0019
  68       -0.0019
  69       -0.0014
  70       -0.0014
  71       -0.0013
  72       -0.0010
  73        0.1891
  74        0.1891
  75        0.1892
  76        0.1899
  77        0.1904
  78        0.1911
  79        0.1912
  80        0.1912
  81        0.3755
  82        0.3761
  83        0.3761
  84        0.3774
  85        0.3779
  86        0.3790
  87        0.3790
  88        0.3796
  89        0.4013
  90        0.4013
  91        0.4035
  92        0.4035
  93        1.0668
  94        1.0682
  95        1.1180
  96        1.1185
  97        1.1188
  98        1.1188
  99        1.1194
 100        1.1194
 101        1.1197
 102        1.1200
 103        1.1435
 104        1.1435
 105        1.1439
 106        1.1441
 107        1.1443
 108        1.1444
 109        1.1447
 110        1.1447
 111        1.2343
 112        1.2353
 113        1.2353
 114        1.2355
 115        1.2361
 116        1.2363
 117        1.2363
 118        1.2373
 119        1.2758
 120        1.2760
 121        1.2767
 122        1.2767
 123        1.2769
 124        1.2769
 125        1.2777
 126        1.2780
 127        1.3356
 128        1.3356
 129        1.3373
 130        1.3373
 131        1.4807
 132        1.4826
 133        1.8654
 134        1.8654
 135        1.8659
 136        1.8660
 137        1.9643
 138        1.9648
 139        1.9648
 140        1.9652
 141        1.9659
 142        1.9662
 143        1.9662
 144        1.9669
 145        2.0783
 146        2.0783
 147        2.0796
 148        2.0797
 149        2.0801
 150        2.0802
 151        2.0813
 152        2.0813
 153        2.0882
 154        2.0882
 155        2.0891
 156        2.0891
 157        2.1367
 158        2.1370
 159        2.4344
 160        2.4350
 161        2.4350
 162        2.4354
 163        2.4356
 164        2.4360
 165        2.4360
 166        2.4366
 167        2.5762
 168        2.5768
 169        2.5769
 170        2.5775
 171        2.6883
 172        2.6887
 173        3.8666
 174        3.8674
 175        3.8680
 176        3.8680
 177        3.8690
 178        3.8690
 179        3.8696
 180        3.8704
 181        6.0676
 182        6.0676
 183        6.0693
 184        6.0693
 185        6.0699
 186        6.0700
 187        6.0716
 188        6.0716
 189        7.3428
 190        7.3428
 191        7.3455
 192        7.3455
 193        8.7747
 194        8.7750
 195        8.7751
 196        8.7753
 197        8.7895
 198        8.7895
 199        8.7914
 200        8.7917
 201        8.7925
 202        8.7926
 203        8.7946
 204        8.7946
 205       10.8202
 206       10.8216
 207       10.8216
 208       10.8217
 209       10.8222
 210       10.8223
 211       10.8223
 212       10.8238
 
  0.0000000E+00  0.8333333E-01  0.0000000E+00  0.2314815E-02
   1       -4.3378
   2       -2.4217
   3       -2.1485
   4       -2.1461
   5       -2.1461
   6       -2.1438
   7       -2.0252
   8       -2.0252
   9       -2.0251
  10       -2.0251
  11       -1.9347
  12       -1.7788
  13       -1.7730
  14       -1.7730
  15       -1.5323
  16       -1.5292
  17       -1.5292
  18       -1.0833
  19       -1.0814
  20       -1.0814
  21       -1.0795
  22       -1.0384
  23       -1.0374
  24       -1.0372
  25       -1.0363
  26       -0.9072
  27       -0.9056
  28       -0.9056
  29       -0.9040
  30       -0.8781
  31       -0.8780
  32       -0.8721
  33       -0.8474
  34       -0.8460
  35       -0.8460
  36       -0.8446
  37       -0.7612
  38       -0.7597
  39       -0.7596
  40       -0.7581
  41       -0.6557
  42       -0.4174
  43       -0.4174
  44       -0.3124
  45       -0.3109
  46       -0.3108
  47       -0.3093
  48       -0.2371
  49       -0.2352
  50       -0.2352
  51       -0.2338
  52       -0.2294
  53       -0.2294
  54       -0.2278
  55       -0.2273
  56       -0.2194
  57       -0.2181
  58       -0.2177