 vasp.4.6.28 25Jul05 complex 
 executed on             LinuxIFC date 2017.01.11  01:12:26
 running on    4 nodes
 distr:  one band on    1 nodes,    4 groups


--------------------------------------------------------------------------------------------------------


 INCAR:
 POTCAR:   PAW_PBE Au 06Sep2000                   
 POTCAR:   PAW_PBE Au 06Sep2000                   
   VRHFIN =Au: s1d10                                                            
   LEXCH  = PE                                                                  
   EATOM  =   926.0567 eV,   68.0632 Ry                                         
                                                                                
   TITEL  = PAW_PBE Au 06Sep2000                                                
   LULTRA =        F    use ultrasoft PP ?                                      
   IUNSCR =        1    unscreen: 0-lin 1-nonlin 2-no                           
   RPACOR =    2.330    partial core radius                                     
   POMASS =  196.966; ZVAL   =   11.000    mass and valenz                      
   RCORE  =    2.500    outmost cutoff radius                                   
   RWIGS  =    2.840; RWIGS  =    1.503    wigner-seitz radius (au A)           
   ENMAX  =  229.948; ENMIN  =  172.461 eV                                      
   RCLOC  =    1.964    cutoff for local pot                                    
   LCOR   =        T    correct aug charges                                     
   LPAW   =        T    paw PP                                                  
   EAUG   =  356.670                                                            
   DEXC   =    -.025                                                            
   RMAX   =    3.041    core radius for proj-oper                               
   RAUG   =    1.300    factor for augmentation sphere                          
   RDEP   =    2.598    radius for radial grids                                 
   QCUT   =   -4.111; QGAM   =    8.222    optimization parameters              
                                                                                
   Description                                                                  
     l     E      TYP  RCUT    TYP  RCUT                                        
     2   .000     23  2.500                                                     
     2   .000     23  2.500                                                     
     0   .000     23  2.500                                                     
     0   .000     23  2.500                                                     
     1  -.200     23  2.500                                                     
     1   .000     23  2.500                                                     
     3   .000      7   .000                                                     
  local pseudopotential read in
  partial core-charges read in
  atomic valenz-charges read in
  non local Contribution for L=           2  read in
    real space projection operators read in
  non local Contribution for L=           2  read in
    real space projection operators read in
  non local Contribution for L=           0  read in
    real space projection operators read in
  non local Contribution for L=           0  read in
    real space projection operators read in
  non local Contribution for L=           1  read in
    real space projection operators read in
  non local Contribution for L=           1  read in
    real space projection operators read in
    PAW grid and wavefunctions read in
 
   number of l-projection  operators is LMAX  =           6
   number of lm-projection operators is LMMAX =          18
 

 ----------------------------------------------------------------------------- 
|                                                                             |
|  ADVICE TO THIS USER RUNNING 'VASP/VAMP'   (HEAR YOUR MASTER'S VOICE ...):  |
|                                                                             |
|      You have a (more or less) 'large supercell' and for larger cells       |
|      it might be more efficient to use real space projection operators      |
|      So try LREAL= Auto  in the INCAR   file.                               |
|      Mind: If you want to do an extremely accurate calculations keep the    |
|      reciprocal projection scheme          (i.e. LREAL=.FALSE.)             |
|                                                                             |
 ----------------------------------------------------------------------------- 

 PAW_PBE Au 06Sep2000                   :
 energy of atom  1       EATOM= -926.0567
 kinetic energy error for atom=    0.0008 (will be added to EATOM!!)
 
 EXHCAR: internal setup
 exchange correlation table for  LEXCH =        8
   RHO(1)=    0.500       N(1)  =     2000
   RHO(2)=  100.500       N(2)  =     4000
 
 POSCAR: Au                                      
  positions in direct lattice
  No initial velocities read in
 


--------------------------------------------------------------------------------------------------------


 ion  position               nearest neighbor table
   1  0.001  0.000  0.000-   9 3.00  11 3.00  17 3.00  21 3.00  25 3.01  27 3.01  29 3.01  31 3.01
                            10 3.02  12 3.02  18 3.02  22 3.02
   2  0.500  0.000  0.000-   9 3.01  10 3.01  11 3.01  12 3.01  17 3.01  18 3.01  21 3.01  22 3.01
                            26 3.01  28 3.01  30 3.01  32 3.01
   3  0.000  0.500  0.000-   9 3.01  10 3.01  11 3.01  12 3.01  19 3.01  20 3.01  23 3.01  24 3.01
                            25 3.01  27 3.01  29 3.01  31 3.01
   4  0.500  0.500  0.000-   9 3.01  10 3.01  11 3.01  12 3.01  19 3.01  20 3.01  23 3.01  24 3.01
                            26 3.01  28 3.01  30 3.01  32 3.01
   5  0.000  0.000  0.500-  13 3.01  14 3.01  15 3.01  16 3.01  17 3.01  18 3.01  21 3.01  22 3.01
                            25 3.01  27 3.01  29 3.01  31 3.01
   6  0.500  0.000  0.500-  13 3.01  14 3.01  15 3.01  16 3.01  17 3.01  18 3.01  21 3.01  22 3.01
                            26 3.01  28 3.01  30 3.01  32 3.01
   7  0.000  0.500  0.500-  13 3.01  14 3.01  15 3.01  16 3.01  19 3.01  20 3.01  23 3.01  24 3.01
                            25 3.01  27 3.01  29 3.01  31 3.01
   8  0.500  0.500  0.500-  13 3.01  14 3.01  15 3.01  16 3.01  19 3.01  20 3.01  23 3.01  24 3.01
                            26 3.01  28 3.01  30 3.01  32 3.01
   9  0.250  0.250  0.000-   1 3.00   2 3.01   3 3.01   4 3.01  17 3.01  19 3.01  21 3.01  23 3.01
                            25 3.01  26 3.01  29 3.01  30 3.01
  10  0.750  0.250  0.000-   2 3.01   3 3.01   4 3.01  18 3.01  20 3.01  22 3.01  24 3.01  25 3.01
                            26 3.01  29 3.01  30 3.01   1 3.02
  11  0.250  0.750  0.000-   1 3.00   2 3.01   3 3.01   4 3.01  17 3.01  19 3.01  21 3.01  23 3.01
                            27 3.01  28 3.01  31 3.01  32 3.01
  12  0.750  0.750  0.000-   2 3.01   3 3.01   4 3.01  18 3.01  20 3.01  22 3.01  24 3.01  27 3.01
                            28 3.01  31 3.01  32 3.01   1 3.02
  13  0.250  0.250  0.500-   5 3.01   6 3.01   7 3.01   8 3.01  17 3.01  19 3.01  21 3.01  23 3.01
                            25 3.01  26 3.01  29 3.01  30 3.01
  14  0.750  0.250  0.500-   5 3.01   6 3.01   7 3.01   8 3.01  18 3.01  20 3.01  22 3.01  24 3.01
                            25 3.01  26 3.01  29 3.01  30 3.01
  15  0.250  0.750  0.500-   5 3.01   6 3.01   7 3.01   8 3.01  17 3.01  19 3.01  21 3.01  23 3.01
                            27 3.01  28 3.01  31 3.01  32 3.01
  16  0.750  0.750  0.500-   5 3.01   6 3.01   7 3.01   8 3.01  18 3.01  20 3.01  22 3.01  24 3.01
                            27 3.01  28 3.01  31 3.01  32 3.01
  17  0.250  0.000  0.250-   1 3.00   2 3.01   5 3.01   6 3.01   9 3.01  11 3.01  13 3.01  15 3.01
                            25 3.01  26 3.01  27 3.01  28 3.01
  18  0.750  0.000  0.250-   2 3.01   5 3.01   6 3.01  10 3.01  12 3.01  14 3.01  16 3.01  25 3.01
                            26 3.01  27 3.01  28 3.01   1 3.02
  19  0.250  0.500  0.250-   3 3.01   4 3.01   7 3.01   8 3.01   9 3.01  11 3.01  13 3.01  15 3.01
                            25 3.01  26 3.01  27 3.01  28 3.01
  20  0.750  0.500  0.250-   3 3.01   4 3.01   7 3.01   8 3.01  10 3.01  12 3.01  14 3.01  16 3.01
                            25 3.01  26 3.01  27 3.01  28 3.01
  21  0.250  0.000  0.750-   1 3.00   2 3.01   5 3.01   6 3.01   9 3.01  11 3.01  13 3.01  15 3.01
                            29 3.01  30 3.01  31 3.01  32 3.01
  22  0.750  0.000  0.750-   2 3.01   5 3.01   6 3.01  10 3.01  12 3.01  14 3.01  16 3.01  29 3.01
                            30 3.01  31 3.01  32 3.01   1 3.02
  23  0.250  0.500  0.750-   3 3.01   4 3.01   7 3.01   8 3.01   9 3.01  11 3.01  13 3.01  15 3.01
                            29 3.01  30 3.01  31 3.01  32 3.01
  24  0.750  0.500  0.750-   3 3.01   4 3.01   7 3.01   8 3.01  10 3.01  12 3.01  14 3.01  16 3.01
                            29 3.01  30 3.01  31 3.01  32 3.01
  25  0.000  0.250  0.250-   3 3.01   5 3.01   7 3.01   9 3.01  10 3.01  13 3.01  14 3.01  17 3.01
                            18 3.01  19 3.01  20 3.01   1 3.01
  26  0.500  0.250  0.250-   2 3.01   4 3.01   6 3.01   8 3.01   9 3.01  10 3.01  13 3.01  14 3.01
                            17 3.01  18 3.01  19 3.01  20 3.01
  27  0.000  0.750  0.250-   3 3.01   5 3.01   7 3.01  11 3.01  12 3.01  15 3.01  16 3.01  17 3.01
                            18 3.01  19 3.01  20 3.01   1 3.01
  28  0.500  0.750  0.250-   2 3.01   4 3.01   6 3.01   8 3.01  11 3.01  12 3.01  15 3.01  16 3.01
                            17 3.01  18 3.01  19 3.01  20 3.01
  29  0.000  0.250  0.750-   3 3.01   5 3.01   7 3.01   9 3.01  10 3.01  13 3.01  14 3.01  21 3.01
                            22 3.01  23 3.01  24 3.01   1 3.01
  30  0.500  0.250  0.750-   2 3.01   4 3.01   6 3.01   8 3.01   9 3.01  10 3.01  13 3.01  14 3.01
                            21 3.01  22 3.01  23 3.01  24 3.01
  31  0.000  0.750  0.750-   3 3.01   5 3.01   7 3.01  11 3.01  12 3.01  15 3.01  16 3.01  21 3.01
                            22 3.01  23 3.01  24 3.01   1 3.01
  32  0.500  0.750  0.750-   2 3.01   4 3.01   6 3.01   8 3.01  11 3.01  12 3.01  15 3.01  16 3.01
                            21 3.01  22 3.01  23 3.01  24 3.01
 
  LATTYP: Found a simple cubic cell.
 ALAT       =     8.5126178807
  
  Lattice vectors:
  
 A1 = (   8.5126178807,   0.0000000000,   0.0000000000)
 A2 = (   0.0000000000,   8.5126178807,   0.0000000000)
 A3 = (   0.0000000000,   0.0000000000,   8.5126178807)
 Subroutine PRICEL returns:
 Original cell was already a primitive cell.
 

Analysis of symmetry for initial positions (statically):

 Routine SETGRP: Setting up the symmetry group for a 
 simple cubic supercell.


 Subroutine GETGRP returns: Found  8 space group operations
 (whereof  8 operations were pure point group operations)
 out of a pool of 48 trial point group operations.


The static configuration has the point symmetry C_4v.

Analysis of symmetry for dynamics (positions and initial velocities):

 Subroutine DYNSYM returns: Found  8 space group operations
 (whereof  8 operations were pure point group operations)
 out of a pool of  8 trial space group operations
 (whereof  8 operations were pure point group operations)
 and found also     1 'primitive' translations


The dynamic configuration has the point symmetry C_4v.
 
 
 KPOINTS: Automatic mesh                          

Automatic generation of k-mesh.
 
 Subroutine IBZKPT returns following result:
 ===========================================
 
 Found    196 irreducible k-points:
 
 Following reciprocal coordinates:
            Coordinates               Weight
  0.000000  0.000000  0.000000      1.000000
  0.083333  0.000000  0.000000      2.000000
  0.166667  0.000000  0.000000      2.000000
  0.250000  0.000000  0.000000      2.000000
  0.333333  0.000000  0.000000      2.000000
  0.416667  0.000000  0.000000      2.000000
  0.500000  0.000000  0.000000      1.000000
  0.000000  0.083333  0.000000      4.000000
  0.083333  0.083333  0.000000      8.000000
  0.166667  0.083333  0.000000      8.000000
  0.250000  0.083333  0.000000      8.000000
  0.333333  0.083333  0.000000      8.000000
  0.416667  0.083333  0.000000      8.000000
  0.500000  0.083333  0.000000      4.000000
  0.000000  0.166667  0.000000      4.000000
  0.083333  0.166667  0.000000      8.000000
  0.166667  0.166667  0.000000      8.000000
  0.250000  0.166667  0.000000      8.000000
  0.333333  0.166667  0.000000      8.000000
  0.416667  0.166667  0.000000      8.000000
  0.500000  0.166667  0.000000      4.000000
  0.000000  0.250000  0.000000      4.000000
  0.083333  0.250000  0.000000      8.000000
  0.166667  0.250000  0.000000      8.000000
  0.250000  0.250000  0.000000      8.000000
  0.333333  0.250000  0.000000      8.000000
  0.416667  0.250000  0.000000      8.000000
  0.500000  0.250000  0.000000      4.000000
  0.000000  0.333333  0.000000      4.000000
  0.083333  0.333333  0.000000      8.000000
  0.166667  0.333333  0.000000      8.000000
  0.250000  0.333333  0.000000      8.000000
  0.333333  0.333333  0.000000      8.000000
  0.416667  0.333333  0.000000      8.000000
  0.500000  0.333333  0.000000      4.000000
  0.000000  0.416667  0.000000      4.000000
  0.083333  0.416667  0.000000      8.000000
  0.166667  0.416667  0.000000      8.000000
  0.250000  0.416667  0.000000      8.000000
  0.333333  0.416667  0.000000      8.000000
  0.416667  0.416667  0.000000      8.000000
  0.500000  0.416667  0.000000      4.000000
  0.000000  0.500000  0.000000      2.000000
  0.083333  0.500000  0.000000      4.000000
  0.166667  0.500000  0.000000      4.000000
  0.250000  0.500000  0.000000      4.000000
  0.333333  0.500000  0.000000      4.000000
  0.416667  0.500000  0.000000      4.000000
  0.500000  0.500000  0.000000      2.000000
  0.000000  0.083333  0.083333      4.000000
  0.083333  0.083333  0.083333      8.000000
  0.166667  0.083333  0.083333      8.000000
  0.250000  0.083333  0.083333      8.000000
  0.333333  0.083333  0.083333      8.000000
  0.416667  0.083333  0.083333      8.000000
  0.500000  0.083333  0.083333      4.000000
  0.000000  0.166667  0.083333      8.000000
  0.083333  0.166667  0.083333     16.000000
  0.166667  0.166667  0.083333     16.000000
  0.250000  0.166667  0.083333     16.000000
  0.333333  0.166667  0.083333     16.000000
  0.416667  0.166667  0.083333     16.000000
  0.500000  0.166667  0.083333      8.000000
  0.000000  0.250000  0.083333      8.000000
  0.083333  0.250000  0.083333     16.000000
  0.166667  0.250000  0.083333     16.000000
  0.250000  0.250000  0.083333     16.000000
  0.333333  0.250000  0.083333     16.000000
  0.416667  0.250000  0.083333     16.000000
  0.500000  0.250000  0.083333      8.000000
  0.000000  0.333333  0.083333      8.000000
  0.083333  0.333333  0.083333     16.000000
  0.166667  0.333333  0.083333     16.000000
  0.250000  0.333333  0.083333     16.000000
  0.333333  0.333333  0.083333     16.000000
  0.416667  0.333333  0.083333     16.000000
  0.500000  0.333333  0.083333      8.000000
  0.000000  0.416667  0.083333      8.000000
  0.083333  0.416667  0.083333     16.000000
  0.166667  0.416667  0.083333     16.000000
  0.250000  0.416667  0.083333     16.000000
  0.333333  0.416667  0.083333     16.000000
  0.416667  0.416667  0.083333     16.000000
  0.500000  0.416667  0.083333      8.000000
  0.000000  0.500000  0.083333      4.000000
  0.083333  0.500000  0.083333      8.000000
  0.166667  0.500000  0.083333      8.000000
  0.250000  0.500000  0.083333      8.000000
  0.333333  0.500000  0.083333      8.000000
  0.416667  0.500000  0.083333      8.000000
  0.500000  0.500000  0.083333      4.000000
  0.000000  0.166667  0.166667      4.000000
  0.083333  0.166667  0.166667      8.000000
  0.166667  0.166667  0.166667      8.000000
  0.250000  0.166667  0.166667      8.000000
  0.333333  0.166667  0.166667      8.000000
  0.416667  0.166667  0.166667      8.000000
  0.500000  0.166667  0.166667      4.000000
  0.000000  0.250000  0.166667      8.000000
  0.083333  0.250000  0.166667     16.000000
  0.166667  0.250000  0.166667     16.000000
  0.250000  0.250000  0.166667     16.000000
  0.333333  0.250000  0.166667     16.000000
  0.416667  0.250000  0.166667     16.000000
  0.500000  0.250000  0.166667      8.000000
  0.000000  0.333333  0.166667      8.000000
  0.083333  0.333333  0.166667     16.000000
  0.166667  0.333333  0.166667     16.000000
  0.250000  0.333333  0.166667     16.000000
  0.333333  0.333333  0.166667     16.000000
  0.416667  0.333333  0.166667     16.000000
  0.500000  0.333333  0.166667      8.000000
  0.000000  0.416667  0.166667      8.000000
  0.083333  0.416667  0.166667     16.000000
  0.166667  0.416667  0.166667     16.000000
  0.250000  0.416667  0.166667     16.000000
  0.333333  0.416667  0.166667     16.000000
  0.416667  0.416667  0.166667     16.000000
  0.500000  0.416667  0.166667      8.000000
  0.000000  0.500000  0.166667      4.000000
  0.083333  0.500000  0.166667      8.000000
  0.166667  0.500000  0.166667      8.000000
  0.250000  0.500000  0.166667      8.000000
  0.333333  0.500000  0.166667      8.000000
  0.416667  0.500000  0.166667      8.000000
  0.500000  0.500000  0.166667      4.000000
  0.000000  0.250000  0.250000      4.000000
  0.083333  0.250000  0.250000      8.000000
  0.166667  0.250000  0.250000      8.000000
  0.250000  0.250000  0.250000      8.000000
  0.333333  0.250000  0.250000      8.000000
  0.416667  0.250000  0.250000      8.000000
  0.500000  0.250000  0.250000      4.000000
  0.000000  0.333333  0.250000      8.000000
  0.083333  0.333333  0.250000     16.000000
  0.166667  0.333333  0.250000     16.000000
  0.250000  0.333333  0.250000     16.000000
  0.333333  0.333333  0.250000     16.000000
  0.416667  0.333333  0.250000     16.000000
  0.500000  0.333333  0.250000      8.000000
  0.000000  0.416667  0.250000      8.000000
  0.083333  0.416667  0.250000     16.000000
  0.166667  0.416667  0.250000     16.000000
  0.250000  0.416667  0.250000     16.000000
  0.333333  0.416667  0.250000     16.000000
  0.416667  0.416667  0.250000     16.000000
  0.500000  0.416667  0.250000      8.000000
  0.000000  0.500000  0.250000      4.000000
  0.083333  0.500000  0.250000      8.000000
  0.166667  0.500000  0.250000      8.000000
  0.250000  0.500000  0.250000      8.000000
  0.333333  0.500000  0.250000      8.000000
  0.416667  0.500000  0.250000      8.000000
  0.500000  0.500000  0.250000      4.000000
  0.000000  0.333333  0.333333      4.000000
  0.083333  0.333333  0.333333      8.000000
  0.166667  0.333333  0.333333      8.000000
  0.250000  0.333333  0.333333      8.000000
  0.333333  0.333333  0.333333      8.000000
  0.416667  0.333333  0.333333      8.000000
  0.500000  0.333333  0.333333      4.000000
  0.000000  0.416667  0.333333      8.000000
  0.083333  0.416667  0.333333     16.000000
  0.166667  0.416667  0.333333     16.000000
  0.250000  0.416667  0.333333     16.000000
  0.333333  0.416667  0.333333     16.000000
  0.416667  0.416667  0.333333     16.000000
  0.500000  0.416667  0.333333      8.000000
  0.000000  0.500000  0.333333      4.000000
  0.083333  0.500000  0.333333      8.000000
  0.166667  0.500000  0.333333      8.000000
  0.250000  0.500000  0.333333      8.000000
  0.333333  0.500000  0.333333      8.000000
  0.416667  0.500000  0.333333      8.000000
  0.500000  0.500000  0.333333      4.000000
  0.000000  0.416667  0.416667      4.000000
  0.083333  0.416667  0.416667      8.000000
  0.166667  0.416667  0.416667      8.000000
  0.250000  0.416667  0.416667      8.000000
  0.333333  0.416667  0.416667      8.000000
  0.416667  0.416667  0.416667      8.000000
  0.500000  0.416667  0.416667      4.000000
  0.000000  0.500000  0.416667      4.000000
  0.083333  0.500000  0.416667      8.000000
  0.166667  0.500000  0.416667      8.000000
  0.250000  0.500000  0.416667      8.000000
  0.333333  0.500000  0.416667      8.000000
  0.416667  0.500000  0.416667      8.000000
  0.500000  0.500000  0.416667      4.000000
  0.000000  0.500000  0.500000      1.000000
  0.083333  0.500000  0.500000      2.000000
  0.166667  0.500000  0.500000      2.000000
  0.250000  0.500000  0.500000      2.000000
  0.333333  0.500000  0.500000      2.000000
  0.416667  0.500000  0.500000      2.000000
  0.500000  0.500000  0.500000      1.000000
 
 Following cartesian coordinates:
            Coordinates               Weight
  0.000000  0.000000  0.000000      1.000000
  0.009789  0.000000  0.000000      2.000000
  0.019579  0.000000  0.000000      2.000000
  0.029368  0.000000  0.000000      2.000000
  0.039158  0.000000  0.000000      2.000000
  0.048947  0.000000  0.000000      2.000000
  0.058736  0.000000  0.000000      1.000000
  0.000000  0.009789  0.000000      4.000000
  0.009789  0.009789  0.000000      8.000000
  0.019579  0.009789  0.000000      8.000000
  0.029368  0.009789  0.000000      8.000000
  0.039158  0.009789  0.000000      8.000000
  0.048947  0.009789  0.000000      8.000000
  0.058736  0.009789  0.000000      4.000000
  0.000000  0.019579  0.000000      4.000000
  0.009789  0.019579  0.000000      8.000000
  0.019579  0.019579  0.000000      8.000000
  0.029368  0.019579  0.000000      8.000000
  0.039158  0.019579  0.000000      8.000000
  0.048947  0.019579  0.000000      8.000000
  0.058736  0.019579  0.000000      4.000000
  0.000000  0.029368  0.000000      4.000000
  0.009789  0.029368  0.000000      8.000000
  0.019579  0.029368  0.000000      8.000000
  0.029368  0.029368  0.000000      8.000000
  0.039158  0.029368  0.000000      8.000000
  0.048947  0.029368  0.000000      8.000000
  0.058736  0.029368  0.000000      4.000000
  0.000000  0.039158  0.000000      4.000000
  0.009789  0.039158  0.000000      8.000000
  0.019579  0.039158  0.000000      8.000000
  0.029368  0.039158  0.000000      8.000000
  0.039158  0.039158  0.000000      8.000000
  0.048947  0.039158  0.000000      8.000000
  0.058736  0.039158  0.000000      4.000000
  0.000000  0.048947  0.000000      4.000000
  0.009789  0.048947  0.000000      8.000000
  0.019579  0.048947  0.000000      8.000000
  0.029368  0.048947  0.000000      8.000000
  0.039158  0.048947  0.000000      8.000000
  0.048947  0.048947  0.000000      8.000000
  0.058736  0.048947  0.000000      4.000000
  0.000000  0.058736  0.000000      2.000000
  0.009789  0.058736  0.000000      4.000000
  0.019579  0.058736  0.000000      4.000000
  0.029368  0.058736  0.000000      4.000000
  0.039158  0.058736  0.000000      4.000000
  0.048947  0.058736  0.000000      4.000000
  0.058736  0.058736  0.000000      2.000000
  0.000000  0.009789  0.009789      4.000000
  0.009789  0.009789  0.009789      8.000000
  0.019579  0.009789  0.009789      8.000000
  0.029368  0.009789  0.009789      8.000000
  0.039158  0.009789  0.009789      8.000000
  0.048947  0.009789  0.009789      8.000000
  0.058736  0.009789  0.009789      4.000000
  0.000000  0.019579  0.009789      8.000000
  0.009789  0.019579  0.009789     16.000000
  0.019579  0.019579  0.009789     16.000000
  0.029368  0.019579  0.009789     16.000000
  0.039158  0.019579  0.009789     16.000000
  0.048947  0.019579  0.009789     16.000000
  0.058736  0.019579  0.009789      8.000000
  0.000000  0.029368  0.009789      8.000000
  0.009789  0.029368  0.009789     16.000000
  0.019579  0.029368  0.009789     16.000000
  0.029368  0.029368  0.009789     16.000000
  0.039158  0.029368  0.009789     16.000000
  0.048947  0.029368  0.009789     16.000000
  0.058736  0.029368  0.009789      8.000000
  0.000000  0.039158  0.009789      8.000000
  0.009789  0.039158  0.009789     16.000000
  0.019579  0.039158  0.009789     16.000000
  0.029368  0.039158  0.009789     16.000000
  0.039158  0.039158  0.009789     16.000000
  0.048947  0.039158  0.009789     16.000000
  0.058736  0.039158  0.009789      8.000000
  0.000000  0.048947  0.009789      8.000000
  0.009789  0.048947  0.009789     16.000000
  0.019579  0.048947  0.009789     16.000000
  0.029368  0.048947  0.009789     16.000000
  0.039158  0.048947  0.009789     16.000000
  0.048947  0.048947  0.009789     16.000000
  0.058736  0.048947  0.009789      8.000000
  0.000000  0.058736  0.009789      4.000000
  0.009789  0.058736  0.009789      8.000000
  0.019579  0.058736  0.009789      8.000000
  0.029368  0.058736  0.009789      8.000000
  0.039158  0.058736  0.009789      8.000000
  0.048947  0.058736  0.009789      8.000000
  0.058736  0.058736  0.009789      4.000000
  0.000000  0.019579  0.019579      4.000000
  0.009789  0.019579  0.019579      8.000000
  0.019579  0.019579  0.019579      8.000000
  0.029368  0.019579  0.019579      8.000000
  0.039158  0.019579  0.019579      8.000000
  0.048947  0.019579  0.019579      8.000000
  0.058736  0.019579  0.019579      4.000000
  0.000000  0.029368  0.019579      8.000000
  0.009789  0.029368  0.019579     16.000000
  0.019579  0.029368  0.019579     16.000000
  0.029368  0.029368  0.019579     16.000000
  0.039158  0.029368  0.019579     16.000000
  0.048947  0.029368  0.019579     16.000000
  0.058736  0.029368  0.019579      8.000000
  0.000000  0.039158  0.019579      8.000000
  0.009789  0.039158  0.019579     16.000000
  0.019579  0.039158  0.019579     16.000000
  0.029368  0.039158  0.019579     16.000000
  0.039158  0.039158  0.019579     16.000000
  0.048947  0.039158  0.019579     16.000000
  0.058736  0.039158  0.019579      8.000000
  0.000000  0.048947  0.019579      8.000000
  0.009789  0.048947  0.019579     16.000000
  0.019579  0.048947  0.019579     16.000000
  0.029368  0.048947  0.019579     16.000000
  0.039158  0.048947  0.019579     16.000000
  0.048947  0.048947  0.019579     16.000000
  0.058736  0.048947  0.019579      8.000000
  0.000000  0.058736  0.019579      4.000000
  0.009789  0.058736  0.019579      8.000000
  0.019579  0.058736  0.019579      8.000000
  0.029368  0.058736  0.019579      8.000000
  0.039158  0.058736  0.019579      8.000000
  0.048947  0.058736  0.019579      8.000000
  0.058736  0.058736  0.019579      4.000000
  0.000000  0.029368  0.029368      4.000000
  0.009789  0.029368  0.029368      8.000000
  0.019579  0.029368  0.029368      8.000000
  0.029368  0.029368  0.029368      8.000000
  0.039158  0.029368  0.029368      8.000000
  0.048947  0.029368  0.029368      8.000000
  0.058736  0.029368  0.029368      4.000000
  0.000000  0.039158  0.029368      8.000000
  0.009789  0.039158  0.029368     16.000000
  0.019579  0.039158  0.029368     16.000000
  0.029368  0.039158  0.029368     16.000000
  0.039158  0.039158  0.029368     16.000000
  0.048947  0.039158  0.029368     16.000000
  0.058736  0.039158  0.029368      8.000000
  0.000000  0.048947  0.029368      8.000000
  0.009789  0.048947  0.029368     16.000000
  0.019579  0.048947  0.029368     16.000000
  0.029368  0.048947  0.029368     16.000000
  0.039158  0.048947  0.029368     16.000000
  0.048947  0.048947  0.029368     16.000000
  0.058736  0.048947  0.029368      8.000000
  0.000000  0.058736  0.029368      4.000000
  0.009789  0.058736  0.029368      8.000000
  0.019579  0.058736  0.029368      8.000000
  0.029368  0.058736  0.029368      8.000000
  0.039158  0.058736  0.029368      8.000000
  0.048947  0.058736  0.029368      8.000000
  0.058736  0.058736  0.029368      4.000000
  0.000000  0.039158  0.039158      4.000000
  0.009789  0.039158  0.039158      8.000000
  0.019579  0.039158  0.039158      8.000000
  0.029368  0.039158  0.039158      8.000000
  0.039158  0.039158  0.039158      8.000000
  0.048947  0.039158  0.039158      8.000000
  0.058736  0.039158  0.039158      4.000000
  0.000000  0.048947  0.039158      8.000000
  0.009789  0.048947  0.039158     16.000000
  0.019579  0.048947  0.039158     16.000000
  0.029368  0.048947  0.039158     16.000000
  0.039158  0.048947  0.039158     16.000000
  0.048947  0.048947  0.039158     16.000000
  0.058736  0.048947  0.039158      8.000000
  0.000000  0.058736  0.039158      4.000000
  0.009789  0.058736  0.039158      8.000000
  0.019579  0.058736  0.039158      8.000000
  0.029368  0.058736  0.039158      8.000000
  0.039158  0.058736  0.039158      8.000000
  0.048947  0.058736  0.039158      8.000000
  0.058736  0.058736  0.039158      4.000000
  0.000000  0.048947  0.048947      4.000000
  0.009789  0.048947  0.048947      8.000000
  0.019579  0.048947  0.048947      8.000000
  0.029368  0.048947  0.048947      8.000000
  0.039158  0.048947  0.048947      8.000000
  0.048947  0.048947  0.048947      8.000000
  0.058736  0.048947  0.048947      4.000000
  0.000000  0.058736  0.048947      4.000000
  0.009789  0.058736  0.048947      8.000000
  0.019579  0.058736  0.048947      8.000000
  0.029368  0.058736  0.048947      8.000000
  0.039158  0.058736  0.048947      8.000000
  0.048947  0.058736  0.048947      8.000000
  0.058736  0.058736  0.048947      4.000000
  0.000000  0.058736  0.058736      1.000000
  0.009789  0.058736  0.058736      2.000000
  0.019579  0.058736  0.058736      2.000000
  0.029368  0.058736  0.058736      2.000000
  0.039158  0.058736  0.058736      2.000000
  0.048947  0.058736  0.058736      2.000000
  0.058736  0.058736  0.058736      1.000000
 


--------------------------------------------------------------------------------------------------------




 Dimension of arrays:
   k-Points           NKPTS =    196   number of bands    NBANDS=    212
   number of dos      NEDOS =    301   number of ions     NIONS =     32
   non local maximal  LDIM  =      6   non local SUM 2l+1 LMDIM =     18
   total plane-waves  NPLWV = 512000
   max r-space proj   IRMAX =      1   max aug-charges    IRDMAX= 406211
   dimension x,y,z NGX =    80 NGY =   80 NGZ =   80
   dimension x,y,z NGXF=   160 NGYF=  160 NGZF=  160
   support grid    NGXF=   320 NGYF=  320 NGZF=  320
   ions per type =              32
 NGX,Y,Z   is equivalent  to a cutoff of  15.62, 15.62, 15.62 a.u.
 NGXF,Y,Z  is equivalent  to a cutoff of  31.25, 31.25, 31.25 a.u.


 I would recommend the setting:
   dimension x,y,z NGX =    76 NGY =   76 NGZ =   76
 SYSTEM =  unknown system                          
 POSCAR =  Au                                      

 Startparameter for this run:
   NWRITE =      2    write-flag & timer
   PREC   = accura    medium, high low
   ISTART =      0    job   : 0-new  1-cont  2-samecut
   ICHARG =      2    charge: 1-file 2-atom 10-const
   ISPIN  =      1    spin polarized calculation?
   LNONCOLLINEAR =      F non collinear calculations
   LSORBIT =      F    spin-orbit coupling
   INIWAV =      1    electr: 0-lowe 1-rand  2-diag
   LASPH  =      F    aspherical Exc in radial PAW
   METAGGA=      F    non-selfconsistent MetaGGA calc.

 Electronic Relaxation 1
   ENCUT  =  750.0 eV  55.12 Ry    7.42 a.u.  19.01 19.01 19.01*2*pi/ulx,y,z
   ENINI  =  750.0     initial cutoff
   ENAUG  =  356.7 eV  augmentation charge cutoff
   NELM   =     60;   NELMIN=  2; NELMDL= -5     # of ELM steps 
   EDIFF  = 0.1E-07   stopping-criterion for ELM
   LREAL  =      F    real-space projection
   LCOMPAT=      F    compatible to vasp.4.4
   LREAL_COMPAT= F    compatible to vasp.4.5.1-3
   GGA_COMPAT  = T    GGA compatible to vasp.4.4-vasp.4.6
   LMAXPAW     = -100 max onsite density
   LMAXMIX     =    2 max onsite mixed and CHGCAR
   VOSKOWN=      0    Vosko Wilk Nusair interpolation
   ROPT   =    0.00000
 Ionic relaxation
   EDIFFG = 0.1E-06   stopping-criterion for IOM
   NSW    =      0    number of steps for IOM
   NBLOCK =      1;   KBLOCK =      1    inner block; outer block 
   IBRION =     -1    ionic relax: 0-MD 1-quasi-New 2-CG
   NFREE  =      0    steps in history (QN), initial steepest desc. (CG)
   ISIF   =      2    stress and relaxation
   IWAVPR =     10    prediction:  0-non 1-charg 2-wave 3-comb
   ISYM   =      2    0-nonsym 1-usesym 2-fastsym
   LCORR  =      T    Harris-Foulkes like correction to forces

   POTIM  =   0.50    time-step for ionic-motion
   TEIN   =    0.0    initial temperature
   TEBEG  =    0.0;   TEEND  =   0.0 temperature during run
   SMASS  =  -3.00    Nose mass-parameter (am)
   estimated Nose-frequenzy (Omega)   =  0.10E-29 period in steps =****** mass=  -0.166E-26a.u.
   NPACO  =    256;   APACO  = 16.0  distance and # of slots for P.C.
   PSTRESS=    0.0 pullay stress

  Mass of Ions in am
   POMASS = 196.97
  Ionic Valenz
   ZVAL   =  11.00
  Atomic Wigner-Seitz radii
   RWIGS  =  -1.00
   NELECT =     352.0000    total number of electrons
   NUPDOWN=      -1.0000    fix difference up-down

 DOS related values:
   EMIN   =  10.00;   EMAX   =-10.00  energy-range for DOS
   ISMEAR =     0;   SIGMA  =   0.01  broadening in eV -4-tet -1-fermi 0-gaus

 Electronic relaxation 2 (details)
   IALGO  =     38    algorithm
   LDIAG  =      T    sub-space diagonalisation
   IMIX   =      4    mixing-type and parameters
     AMIX     =   0.40;   BMIX     =  1.00
     AMIX_MAG =   1.60;   BMIX_MAG =  1.00
     AMIN     =   0.10
     WC   =   100.;   INIMIX=   1;  MIXPRE=   1

 Intra band minimization:
   WEIMIN = 0.0000     energy-eigenvalue tresh-hold
   EBREAK =  0.12E-10  absolut break condition
   DEPER  =   0.30     relativ break condition  

   TIME   =   0.10     timestep for ELM

  volume/ion in A,a.u.               =      19.28       130.09
  Fermi-wavevector in a.u.,eV,Ry     =   1.357873 25.086692  1.843820

 Second variation
   LSECVAR=     F    do a second variation
 
 Write flags
   LWAVE  =      F    write WAVECAR
   LCHARG =      F    write CHGCAR
   LVTOT  =      F    write LOCPOT, local potential
   LELF   =      F    write electronic localiz. function (ELF)
   LORBIT =      0    0 simple, 1 ext, 2 COOP (PROOUT)


 Dipole corrections
   IDIPOL =      0    1-x, 2-y, 3-z
   LDIPOL =      F    correct potential



--------------------------------------------------------------------------------------------------------


 Static calculation
 charge density will be updated during run
 non-spin polarized calculation
 Variant of blocked Davidson
 Davidson routine will perform the subspace rotation
 performe sub-space diagonalisation
    after iterative eigenvector-optimisation
 modified Broyden-mixing scheme, WC =      100.0
 initial mixing is a Kerker type mixing with AMIX =  0.4000 and BMIX =      1.0000
 Hartree-type preconditioning will be used
 using additional bands           36
 reciprocal scheme for non local part
 use partial core corrections
 calculate Harris-corrections to forces 
   (improved forces if not selfconsistent)
 use gradient corrections 
 use of overlap-Matrix (Vanderbilt PP)
 Gauss-broadening in eV      SIGMA  =   0.01


--------------------------------------------------------------------------------------------------------


  energy-cutoff  :      750.00
  volume of cell :      616.86
      direct lattice vectors                 reciprocal lattice vectors
     8.512617881  0.000000000  0.000000000     0.117472676  0.000000000  0.000000000
     0.000000000  8.512617881  0.000000000     0.000000000  0.117472676  0.000000000
     0.000000000  0.000000000  8.512617881     0.000000000  0.000000000  0.117472676

  length of vectors
     8.512617881  8.512617881  8.512617881     0.117472676  0.117472676  0.117472676


 
 k-points in units of 2pi/SCALE and weight: Automatic mesh                          
   0.00000000  0.00000000  0.00000000       0.001
   0.00978939  0.00000000  0.00000000       0.001
   0.01957878  0.00000000  0.00000000       0.001
   0.02936817  0.00000000  0.00000000       0.001
   0.03915756  0.00000000  0.00000000       0.001
   0.04894695  0.00000000  0.00000000       0.001
   0.05873634  0.00000000  0.00000000       0.001
   0.00000000  0.00978939  0.00000000       0.002
   0.00978939  0.00978939  0.00000000       0.005
   0.01957878  0.00978939  0.00000000       0.005
   0.02936817  0.00978939  0.00000000       0.005
   0.03915756  0.00978939  0.00000000       0.005
   0.04894695  0.00978939  0.00000000       0.005
   0.05873634  0.00978939  0.00000000       0.002
   0.00000000  0.01957878  0.00000000       0.002
   0.00978939  0.01957878  0.00000000       0.005
   0.01957878  0.01957878  0.00000000       0.005
   0.02936817  0.01957878  0.00000000       0.005
   0.03915756  0.01957878  0.00000000       0.005
   0.04894695  0.01957878  0.00000000       0.005
   0.05873634  0.01957878  0.00000000       0.002
   0.00000000  0.02936817  0.00000000       0.002
   0.00978939  0.02936817  0.00000000       0.005
   0.01957878  0.02936817  0.00000000       0.005
   0.02936817  0.02936817  0.00000000       0.005
   0.03915756  0.02936817  0.00000000       0.005
   0.04894695  0.02936817  0.00000000       0.005
   0.05873634  0.02936817  0.00000000       0.002
   0.00000000  0.03915756  0.00000000       0.002
   0.00978939  0.03915756  0.00000000       0.005
   0.01957878  0.03915756  0.00000000       0.005
   0.02936817  0.03915756  0.00000000       0.005
   0.03915756  0.03915756  0.00000000       0.005
   0.04894695  0.03915756  0.00000000       0.005
   0.05873634  0.03915756  0.00000000       0.002
   0.00000000  0.04894695  0.00000000       0.002
   0.00978939  0.04894695  0.00000000       0.005
   0.01957878  0.04894695  0.00000000       0.005
   0.02936817  0.04894695  0.00000000       0.005
   0.03915756  0.04894695  0.00000000       0.005
   0.04894695  0.04894695  0.00000000       0.005
   0.05873634  0.04894695  0.00000000       0.002
   0.00000000  0.05873634  0.00000000       0.001
   0.00978939  0.05873634  0.00000000       0.002
   0.01957878  0.05873634  0.00000000       0.002
   0.02936817  0.05873634  0.00000000       0.002
   0.03915756  0.05873634  0.00000000       0.002
   0.04894695  0.05873634  0.00000000       0.002
   0.05873634  0.05873634  0.00000000       0.001
   0.00000000  0.00978939  0.00978939       0.002
   0.00978939  0.00978939  0.00978939       0.005
   0.01957878  0.00978939  0.00978939       0.005
   0.02936817  0.00978939  0.00978939       0.005
   0.03915756  0.00978939  0.00978939       0.005
   0.04894695  0.00978939  0.00978939       0.005
   0.05873634  0.00978939  0.00978939       0.002
   0.00000000  0.01957878  0.00978939       0.005
   0.00978939  0.01957878  0.00978939       0.009
   0.01957878  0.01957878  0.00978939       0.009
   0.02936817  0.01957878  0.00978939       0.009
   0.03915756  0.01957878  0.00978939       0.009
   0.04894695  0.01957878  0.00978939       0.009
   0.05873634  0.01957878  0.00978939       0.005
   0.00000000  0.02936817  0.00978939       0.005
   0.00978939  0.02936817  0.00978939       0.009
   0.01957878  0.02936817  0.00978939       0.009
   0.02936817  0.02936817  0.00978939       0.009
   0.03915756  0.02936817  0.00978939       0.009
   0.04894695  0.02936817  0.00978939       0.009
   0.05873634  0.02936817  0.00978939       0.005
   0.00000000  0.03915756  0.00978939       0.005
   0.00978939  0.03915756  0.00978939       0.009
   0.01957878  0.03915756  0.00978939       0.009
   0.02936817  0.03915756  0.00978939       0.009
   0.03915756  0.03915756  0.00978939       0.009
   0.04894695  0.03915756  0.00978939       0.009
   0.05873634  0.03915756  0.00978939       0.005
   0.00000000  0.04894695  0.00978939       0.005
   0.00978939  0.04894695  0.00978939       0.009
   0.01957878  0.04894695  0.00978939       0.009
   0.02936817  0.04894695  0.00978939       0.009
   0.03915756  0.04894695  0.00978939       0.009
   0.04894695  0.04894695  0.00978939       0.009
   0.05873634  0.04894695  0.00978939       0.005
   0.00000000  0.05873634  0.00978939       0.002
   0.00978939  0.05873634  0.00978939       0.005
   0.01957878  0.05873634  0.00978939       0.005
   0.02936817  0.05873634  0.00978939       0.005
   0.03915756  0.05873634  0.00978939       0.005
   0.04894695  0.05873634  0.00978939       0.005
   0.05873634  0.05873634  0.00978939       0.002
   0.00000000  0.01957878  0.01957878       0.002
   0.00978939  0.01957878  0.01957878       0.005
   0.01957878  0.01957878  0.01957878       0.005
   0.02936817  0.01957878  0.01957878       0.005
   0.03915756  0.01957878  0.01957878       0.005
   0.04894695  0.01957878  0.01957878       0.005
   0.05873634  0.01957878  0.01957878       0.002
   0.00000000  0.02936817  0.01957878       0.005
   0.00978939  0.02936817  0.01957878       0.009
   0.01957878  0.02936817  0.01957878       0.009
   0.02936817  0.02936817  0.01957878       0.009
   0.03915756  0.02936817  0.01957878       0.009
   0.04894695  0.02936817  0.01957878       0.009
   0.05873634  0.02936817  0.01957878       0.005
   0.00000000  0.03915756  0.01957878       0.005
   0.00978939  0.03915756  0.01957878       0.009
   0.01957878  0.03915756  0.01957878       0.009
   0.02936817  0.03915756  0.01957878       0.009
   0.03915756  0.03915756  0.01957878       0.009
   0.04894695  0.03915756  0.01957878       0.009
   0.05873634  0.03915756  0.01957878       0.005
   0.00000000  0.04894695  0.01957878       0.005
   0.00978939  0.04894695  0.01957878       0.009
   0.01957878  0.04894695  0.01957878       0.009
   0.02936817  0.04894695  0.01957878       0.009
   0.03915756  0.04894695  0.01957878       0.009
   0.04894695  0.04894695  0.01957878       0.009
   0.05873634  0.04894695  0.01957878       0.005
   0.00000000  0.05873634  0.01957878       0.002
   0.00978939  0.05873634  0.01957878       0.005
   0.01957878  0.05873634  0.01957878       0.005
   0.02936817  0.05873634  0.01957878       0.005
   0.03915756  0.05873634  0.01957878       0.005
   0.04894695  0.05873634  0.01957878       0.005
   0.05873634  0.05873634  0.01957878       0.002
   0.00000000  0.02936817  0.02936817       0.002
   0.00978939  0.02936817  0.02936817       0.005
   0.01957878  0.02936817  0.02936817       0.005
   0.02936817  0.02936817  0.02936817       0.005
   0.03915756  0.02936817  0.02936817       0.005
   0.04894695  0.02936817  0.02936817       0.005
   0.05873634  0.02936817  0.02936817       0.002
   0.00000000  0.03915756  0.02936817       0.005
   0.00978939  0.03915756  0.02936817       0.009
   0.01957878  0.03915756  0.02936817       0.009
   0.02936817  0.03915756  0.02936817       0.009
   0.03915756  0.03915756  0.02936817       0.009
   0.04894695  0.03915756  0.02936817       0.009
   0.05873634  0.03915756  0.02936817       0.005
   0.00000000  0.04894695  0.02936817       0.005
   0.00978939  0.04894695  0.02936817       0.009
   0.01957878  0.04894695  0.02936817       0.009
   0.02936817  0.04894695  0.02936817       0.009
   0.03915756  0.04894695  0.02936817       0.009
   0.04894695  0.04894695  0.02936817       0.009
   0.05873634  0.04894695  0.02936817       0.005
   0.00000000  0.05873634  0.02936817       0.002
   0.00978939  0.05873634  0.02936817       0.005
   0.01957878  0.05873634  0.02936817       0.005
   0.02936817  0.05873634  0.02936817       0.005
   0.03915756  0.05873634  0.02936817       0.005
   0.04894695  0.05873634  0.02936817       0.005
   0.05873634  0.05873634  0.02936817       0.002
   0.00000000  0.03915756  0.03915756       0.002
   0.00978939  0.03915756  0.03915756       0.005
   0.01957878  0.03915756  0.03915756       0.005
   0.02936817  0.03915756  0.03915756       0.005
   0.03915756  0.03915756  0.03915756       0.005
   0.04894695  0.03915756  0.03915756       0.005
   0.05873634  0.03915756  0.03915756       0.002
   0.00000000  0.04894695  0.03915756       0.005
   0.00978939  0.04894695  0.03915756       0.009
   0.01957878  0.04894695  0.03915756       0.009
   0.02936817  0.04894695  0.03915756       0.009
   0.03915756  0.04894695  0.03915756       0.009
   0.04894695  0.04894695  0.03915756       0.009
   0.05873634  0.04894695  0.03915756       0.005
   0.00000000  0.05873634  0.03915756       0.002
   0.00978939  0.05873634  0.03915756       0.005
   0.01957878  0.05873634  0.03915756       0.005
   0.02936817  0.05873634  0.03915756       0.005
   0.03915756  0.05873634  0.03915756       0.005
   0.04894695  0.05873634  0.03915756       0.005
   0.05873634  0.05873634  0.03915756       0.002
   0.00000000  0.04894695  0.04894695       0.002
   0.00978939  0.04894695  0.04894695       0.005
   0.01957878  0.04894695  0.04894695       0.005
   0.02936817  0.04894695  0.04894695       0.005
   0.03915756  0.04894695  0.04894695       0.005
   0.04894695  0.04894695  0.04894695       0.005
   0.05873634  0.04894695  0.04894695       0.002
   0.00000000  0.05873634  0.04894695       0.002
   0.00978939  0.05873634  0.04894695       0.005
   0.01957878  0.05873634  0.04894695       0.005
   0.02936817  0.05873634  0.04894695       0.005
   0.03915756  0.05873634  0.04894695       0.005
   0.04894695  0.05873634  0.04894695       0.005
   0.05873634  0.05873634  0.04894695       0.002
   0.00000000  0.05873634  0.05873634       0.001
   0.00978939  0.05873634  0.05873634       0.001
   0.01957878  0.05873634  0.05873634       0.001
   0.02936817  0.05873634  0.05873634       0.001
   0.03915756  0.05873634  0.05873634       0.001
   0.04894695  0.05873634  0.05873634       0.001
   0.05873634  0.05873634  0.05873634       0.001
 
 k-points in reciprocal lattice and weights: Automatic mesh                          
   0.00000000  0.00000000  0.00000000       0.001
   0.08333333  0.00000000  0.00000000       0.001
   0.16666667  0.00000000  0.00000000       0.001
   0.25000000  0.00000000  0.00000000       0.001
   0.33333333  0.00000000  0.00000000       0.001
   0.41666667  0.00000000  0.00000000       0.001
   0.50000000  0.00000000  0.00000000       0.001
   0.00000000  0.08333333  0.00000000       0.002
   0.08333333  0.08333333  0.00000000       0.005
   0.16666667  0.08333333  0.00000000       0.005
   0.25000000  0.08333333  0.00000000       0.005
   0.33333333  0.08333333  0.00000000       0.005
   0.41666667  0.08333333  0.00000000       0.005
   0.50000000  0.08333333  0.00000000       0.002
   0.00000000  0.16666667  0.00000000       0.002
   0.08333333  0.16666667  0.00000000       0.005
   0.16666667  0.16666667  0.00000000       0.005
   0.25000000  0.16666667  0.00000000       0.005
   0.33333333  0.16666667  0.00000000       0.005
   0.41666667  0.16666667  0.00000000       0.005
   0.50000000  0.16666667  0.00000000       0.002
   0.00000000  0.25000000  0.00000000       0.002
   0.08333333  0.25000000  0.00000000       0.005
   0.16666667  0.25000000  0.00000000       0.005
   0.25000000  0.25000000  0.00000000       0.005
   0.33333333  0.25000000  0.00000000       0.005
   0.41666667  0.25000000  0.00000000       0.005
   0.50000000  0.25000000  0.00000000       0.002
   0.00000000  0.33333333  0.00000000       0.002
   0.08333333  0.33333333  0.00000000       0.005
   0.16666667  0.33333333  0.00000000       0.005
   0.25000000  0.33333333  0.00000000       0.005
   0.33333333  0.33333333  0.00000000       0.005
   0.41666667  0.33333333  0.00000000       0.005
   0.50000000  0.33333333  0.00000000       0.002
   0.00000000  0.41666667  0.00000000       0.002
   0.08333333  0.41666667  0.00000000       0.005
   0.16666667  0.41666667  0.00000000       0.005
   0.25000000  0.41666667  0.00000000       0.005
   0.33333333  0.41666667  0.00000000       0.005
   0.41666667  0.41666667  0.00000000       0.005
   0.50000000  0.41666667  0.00000000       0.002
   0.00000000  0.50000000  0.00000000       0.001
   0.08333333  0.50000000  0.00000000       0.002
   0.16666667  0.50000000  0.00000000       0.002
   0.25000000  0.50000000  0.00000000       0.002
   0.33333333  0.50000000  0.00000000       0.002
   0.41666667  0.50000000  0.00000000       0.002
   0.50000000  0.50000000  0.00000000       0.001
   0.00000000  0.08333333  0.08333333       0.002
   0.08333333  0.08333333  0.08333333       0.005
   0.16666667  0.08333333  0.08333333       0.005
   0.25000000  0.08333333  0.08333333       0.005
   0.33333333  0.08333333  0.08333333       0.005
   0.41666667  0.08333333  0.08333333       0.005
   0.50000000  0.08333333  0.08333333       0.002
   0.00000000  0.16666667  0.08333333       0.005
   0.08333333  0.16666667  0.08333333       0.009
   0.16666667  0.16666667  0.08333333       0.009
   0.25000000  0.16666667  0.08333333       0.009
   0.33333333  0.16666667  0.08333333       0.009
   0.41666667  0.16666667  0.08333333       0.009
   0.50000000  0.16666667  0.08333333       0.005
   0.00000000  0.25000000  0.08333333       0.005
   0.08333333  0.25000000  0.08333333       0.009
   0.16666667  0.25000000  0.08333333       0.009
   0.25000000  0.25000000  0.08333333       0.009
   0.33333333  0.25000000  0.08333333       0.009
   0.41666667  0.25000000  0.08333333       0.009
   0.50000000  0.25000000  0.08333333       0.005
   0.00000000  0.33333333  0.08333333       0.005
   0.08333333  0.33333333  0.08333333       0.009
   0.16666667  0.33333333  0.08333333       0.009
   0.25000000  0.33333333  0.08333333       0.009
   0.33333333  0.33333333  0.08333333       0.009
   0.41666667  0.33333333  0.08333333       0.009
   0.50000000  0.33333333  0.08333333       0.005
   0.00000000  0.41666667  0.08333333       0.005
   0.08333333  0.41666667  0.08333333       0.009
   0.16666667  0.41666667  0.08333333       0.009
   0.25000000  0.41666667  0.08333333       0.009
   0.33333333  0.41666667  0.08333333       0.009
   0.41666667  0.41666667  0.08333333       0.009
   0.50000000  0.41666667  0.08333333       0.005
   0.00000000  0.50000000  0.08333333       0.002
   0.08333333  0.50000000  0.08333333       0.005
   0.16666667  0.50000000  0.08333333       0.005
   0.25000000  0.50000000  0.08333333       0.005
   0.33333333  0.50000000  0.08333333       0.005
   0.41666667  0.50000000  0.08333333       0.005
   0.50000000  0.50000000  0.08333333       0.002
   0.00000000  0.16666667  0.16666667       0.002
   0.08333333  0.16666667  0.16666667       0.005
   0.16666667  0.16666667  0.16666667       0.005
   0.25000000  0.16666667  0.16666667       0.005
   0.33333333  0.16666667  0.16666667       0.005
   0.41666667  0.16666667  0.16666667       0.005
   0.50000000  0.16666667  0.16666667       0.002
   0.00000000  0.25000000  0.16666667       0.005
   0.08333333  0.25000000  0.16666667       0.009
   0.16666667  0.25000000  0.16666667       0.009
   0.25000000  0.25000000  0.16666667       0.009
   0.33333333  0.25000000  0.16666667       0.009
   0.41666667  0.25000000  0.16666667       0.009
   0.50000000  0.25000000  0.16666667       0.005
   0.00000000  0.33333333  0.16666667       0.005
   0.08333333  0.33333333  0.16666667       0.009
   0.16666667  0.33333333  0.16666667       0.009
   0.25000000  0.33333333  0.16666667       0.009
   0.33333333  0.33333333  0.16666667       0.009
   0.41666667  0.33333333  0.16666667       0.009
   0.50000000  0.33333333  0.16666667       0.005
   0.00000000  0.41666667  0.16666667       0.005
   0.08333333  0.41666667  0.16666667       0.009
   0.16666667  0.41666667  0.16666667       0.009
   0.25000000  0.41666667  0.16666667       0.009
   0.33333333  0.41666667  0.16666667       0.009
   0.41666667  0.41666667  0.16666667       0.009
   0.50000000  0.41666667  0.16666667       0.005
   0.00000000  0.50000000  0.16666667       0.002
   0.08333333  0.50000000  0.16666667       0.005
   0.16666667  0.50000000  0.16666667       0.005
   0.25000000  0.50000000  0.16666667       0.005
   0.33333333  0.50000000  0.16666667       0.005
   0.41666667  0.50000000  0.16666667       0.005
   0.50000000  0.50000000  0.16666667       0.002
   0.00000000  0.25000000  0.25000000       0.002
   0.08333333  0.25000000  0.25000000       0.005
   0.16666667  0.25000000  0.25000000       0.005
   0.25000000  0.25000000  0.25000000       0.005
   0.33333333  0.25000000  0.25000000       0.005
   0.41666667  0.25000000  0.25000000       0.005
   0.50000000  0.25000000  0.25000000       0.002
   0.00000000  0.33333333  0.25000000       0.005
   0.08333333  0.33333333  0.25000000       0.009
   0.16666667  0.33333333  0.25000000       0.009
   0.25000000  0.33333333  0.25000000       0.009
   0.33333333  0.33333333  0.25000000       0.009
   0.41666667  0.33333333  0.25000000       0.009
   0.50000000  0.33333333  0.25000000       0.005
   0.00000000  0.41666667  0.25000000       0.005
   0.08333333  0.41666667  0.25000000       0.009
   0.16666667  0.41666667  0.25000000       0.009
   0.25000000  0.41666667  0.25000000       0.009
   0.33333333  0.41666667  0.25000000       0.009
   0.41666667  0.41666667  0.25000000       0.009
   0.50000000  0.41666667  0.25000000       0.005
   0.00000000  0.50000000  0.25000000       0.002
   0.08333333  0.50000000  0.25000000       0.005
   0.16666667  0.50000000  0.25000000       0.005
   0.25000000  0.50000000  0.25000000       0.005
   0.33333333  0.50000000  0.25000000       0.005
   0.41666667  0.50000000  0.25000000       0.005
   0.50000000  0.50000000  0.25000000       0.002
   0.00000000  0.33333333  0.33333333       0.002
   0.08333333  0.33333333  0.33333333       0.005
   0.16666667  0.33333333  0.33333333       0.005
   0.25000000  0.33333333  0.33333333       0.005
   0.33333333  0.33333333  0.33333333       0.005
   0.41666667  0.33333333  0.33333333       0.005
   0.50000000  0.33333333  0.33333333       0.002
   0.00000000  0.41666667  0.33333333       0.005
   0.08333333  0.41666667  0.33333333       0.009
   0.16666667  0.41666667  0.33333333       0.009
   0.25000000  0.41666667  0.33333333       0.009
   0.33333333  0.41666667  0.33333333       0.009
   0.41666667  0.41666667  0.33333333       0.009
   0.50000000  0.41666667  0.33333333       0.005
   0.00000000  0.50000000  0.33333333       0.002
   0.08333333  0.50000000  0.33333333       0.005
   0.16666667  0.50000000  0.33333333       0.005
   0.25000000  0.50000000  0.33333333       0.005
   0.33333333  0.50000000  0.33333333       0.005
   0.41666667  0.50000000  0.33333333       0.005
   0.50000000  0.50000000  0.33333333       0.002
   0.00000000  0.41666667  0.41666667       0.002
   0.08333333  0.41666667  0.41666667       0.005
   0.16666667  0.41666667  0.41666667       0.005
   0.25000000  0.41666667  0.41666667       0.005
   0.33333333  0.41666667  0.41666667       0.005
   0.41666667  0.41666667  0.41666667       0.005
   0.50000000  0.41666667  0.41666667       0.002
   0.00000000  0.50000000  0.41666667       0.002
   0.08333333  0.50000000  0.41666667       0.005
   0.16666667  0.50000000  0.41666667       0.005
   0.25000000  0.50000000  0.41666667       0.005
   0.33333333  0.50000000  0.41666667       0.005
   0.41666667  0.50000000  0.41666667       0.005
   0.50000000  0.50000000  0.41666667       0.002
   0.00000000  0.50000000  0.50000000       0.001
   0.08333333  0.50000000  0.50000000       0.001
   0.16666667  0.50000000  0.50000000       0.001
   0.25000000  0.50000000  0.50000000       0.001
   0.33333333  0.50000000  0.50000000       0.001
   0.41666667  0.50000000  0.50000000       0.001
   0.50000000  0.50000000  0.50000000       0.001
 
 position of ions in fractional coordinates (direct lattice) 
   0.00117473  0.00000000  0.00000000
   0.50000000  0.00000000  0.00000000
   0.00000000  0.50000000  0.00000000
   0.50000000  0.50000000  0.00000000
   0.00000000  0.00000000  0.50000000
   0.50000000  0.00000000  0.50000000
   0.00000000  0.50000000  0.50000000
   0.50000000  0.50000000  0.50000000
   0.25000000  0.25000000  0.00000000
   0.75000000  0.25000000  0.00000000
   0.25000000  0.75000000  0.00000000
   0.75000000  0.75000000  0.00000000
   0.25000000  0.25000000  0.50000000
   0.75000000  0.25000000  0.50000000
   0.25000000  0.75000000  0.50000000
   0.75000000  0.75000000  0.50000000
   0.25000000  0.00000000  0.25000000
   0.75000000  0.00000000  0.25000000
   0.25000000  0.50000000  0.25000000
   0.75000000  0.50000000  0.25000000
   0.25000000  0.00000000  0.75000000
   0.75000000  0.00000000  0.75000000
   0.25000000  0.50000000  0.75000000
   0.75000000  0.50000000  0.75000000
   0.00000000  0.25000000  0.25000000
   0.50000000  0.25000000  0.25000000
   0.00000000  0.75000000  0.25000000
   0.50000000  0.75000000  0.25000000
   0.00000000  0.25000000  0.75000000
   0.50000000  0.25000000  0.75000000
   0.00000000  0.75000000  0.75000000
   0.50000000  0.75000000  0.75000000
 
 position of ions in cartesian coordinates  (Angst):
   0.01000000  0.00000000  0.00000000
   4.25630894  0.00000000  0.00000000
   0.00000000  4.25630894  0.00000000
   4.25630894  4.25630894  0.00000000
   0.00000000  0.00000000  4.25630894
   4.25630894  0.00000000  4.25630894
   0.00000000  4.25630894  4.25630894
   4.25630894  4.25630894  4.25630894
   2.12815447  2.12815447  0.00000000
   6.38446341  2.12815447  0.00000000
   2.12815447  6.38446341  0.00000000
   6.38446341  6.38446341  0.00000000
   2.12815447  2.12815447  4.25630894
   6.38446341  2.12815447  4.25630894
   2.12815447  6.38446341  4.25630894
   6.38446341  6.38446341  4.25630894
   2.12815447  0.00000000  2.12815447
   6.38446341  0.00000000  2.12815447
   2.12815447  4.25630894  2.12815447
   6.38446341  4.25630894  2.12815447
   2.12815447  0.00000000  6.38446341
   6.38446341  0.00000000  6.38446341
   2.12815447  4.25630894  6.38446341
   6.38446341  4.25630894  6.38446341
   0.00000000  2.12815447  2.12815447
   4.25630894  2.12815447  2.12815447
   0.00000000  6.38446341  2.12815447
   4.25630894  6.38446341  2.12815447
   0.00000000  2.12815447  6.38446341
   4.25630894  2.12815447  6.38446341
   0.00000000  6.38446341  6.38446341
   4.25630894  6.38446341  6.38446341
 


--------------------------------------------------------------------------------------------------------


 k-point  1 :  0.00000.00000.0000  plane waves:  28671
 k-point  2 :  0.08330.00000.0000  plane waves:  28690
 k-point  3 :  0.16670.00000.0000  plane waves:  28718
 k-point  4 :  0.25000.00000.0000  plane waves:  28746
 k-point  5 :  0.33330.00000.0000  plane waves:  28726
 k-point  6 :  0.41670.00000.0000  plane waves:  28782
 k-point  7 :  0.50000.00000.0000  plane waves:  28830
 k-point  8 :  0.00000.08330.0000  plane waves:  28690
 k-point  9 :  0.08330.08330.0000  plane waves:  28705
 k-point 10 :  0.16670.08330.0000  plane waves:  28721
 k-point 11 :  0.25000.08330.0000  plane waves:  28734
 k-point 12 :  0.33330.08330.0000  plane waves:  28746
 k-point 13 :  0.41670.08330.0000  plane waves:  28772
 k-point 14 :  0.50000.08330.0000  plane waves:  28794
 k-point 15 :  0.00000.16670.0000  plane waves:  28718
 k-point 16 :  0.08330.16670.0000  plane waves:  28721
 k-point 17 :  0.16670.16670.0000  plane waves:  28729
 k-point 18 :  0.25000.16670.0000  plane waves:  28736
 k-point 19 :  0.33330.16670.0000  plane waves:  28743
 k-point 20 :  0.41670.16670.0000  plane waves:  28755
 k-point 21 :  0.50000.16670.0000  plane waves:  28790
 k-point 22 :  0.00000.25000.0000  plane waves:  28746
 k-point 23 :  0.08330.25000.0000  plane waves:  28734
 k-point 24 :  0.16670.25000.0000  plane waves:  28736
 k-point 25 :  0.25000.25000.0000  plane waves:  28733
 k-point 26 :  0.33330.25000.0000  plane waves:  28749
 k-point 27 :  0.41670.25000.0000  plane waves:  28768
 k-point 28 :  0.50000.25000.0000  plane waves:  28808
 k-point 29 :  0.00000.33330.0000  plane waves:  28726
 k-point 30 :  0.08330.33330.0000  plane waves:  28746
 k-point 31 :  0.16670.33330.0000  plane waves:  28743
 k-point 32 :  0.25000.33330.0000  plane waves:  28749
 k-point 33 :  0.33330.33330.0000  plane waves:  28769
 k-point 34 :  0.41670.33330.0000  plane waves:  28785
 k-point 35 :  0.50000.33330.0000  plane waves:  28754
 k-point 36 :  0.00000.41670.0000  plane waves:  28782
 k-point 37 :  0.08330.41670.0000  plane waves:  28772
 k-point 38 :  0.16670.41670.0000  plane waves:  28755
 k-point 39 :  0.25000.41670.0000  plane waves:  28768
 k-point 40 :  0.33330.41670.0000  plane waves:  28785
 k-point 41 :  0.41670.41670.0000  plane waves:  28763
 k-point 42 :  0.50000.41670.0000  plane waves:  28754
 k-point 43 :  0.00000.50000.0000  plane waves:  28830
 k-point 44 :  0.08330.50000.0000  plane waves:  28794
 k-point 45 :  0.16670.50000.0000  plane waves:  28790
 k-point 46 :  0.25000.50000.0000  plane waves:  28808
 k-point 47 :  0.33330.50000.0000  plane waves:  28754
 k-point 48 :  0.41670.50000.0000  plane waves:  28754
 k-point 49 :  0.50000.50000.0000  plane waves:  28692
 k-point 50 :  0.00000.08330.0833  plane waves:  28705
 k-point 51 :  0.08330.08330.0833  plane waves:  28729
 k-point 52 :  0.16670.08330.0833  plane waves:  28716
 k-point 53 :  0.25000.08330.0833  plane waves:  28744
 k-point 54 :  0.33330.08330.0833  plane waves:  28756
 k-point 55 :  0.41670.08330.0833  plane waves:  28765
 k-point 56 :  0.50000.08330.0833  plane waves:  28810
 k-point 57 :  0.00000.16670.0833  plane waves:  28721
 k-point 58 :  0.08330.16670.0833  plane waves:  28716
 k-point 59 :  0.16670.16670.0833  plane waves:  28727
 k-point 60 :  0.25000.16670.0833  plane waves:  28757
 k-point 61 :  0.33330.16670.0833  plane waves:  28777
 k-point 62 :  0.41670.16670.0833  plane waves:  28765
 k-point 63 :  0.50000.16670.0833  plane waves:  28810
 k-point 64 :  0.00000.25000.0833  plane waves:  28734
 k-point 65 :  0.08330.25000.0833  plane waves:  28744
 k-point 66 :  0.16670.25000.0833  plane waves:  28757
 k-point 67 :  0.25000.25000.0833  plane waves:  28758
 k-point 68 :  0.33330.25000.0833  plane waves:  28757
 k-point 69 :  0.41670.25000.0833  plane waves:  28781
 k-point 70 :  0.50000.25000.0833  plane waves:  28814
 k-point 71 :  0.00000.33330.0833  plane waves:  28746
 k-point 72 :  0.08330.33330.0833  plane waves:  28756
 k-point 73 :  0.16670.33330.0833  plane waves:  28777
 k-point 74 :  0.25000.33330.0833  plane waves:  28757
 k-point 75 :  0.33330.33330.0833  plane waves:  28771
 k-point 76 :  0.41670.33330.0833  plane waves:  28792
 k-point 77 :  0.50000.33330.0833  plane waves:  28780
 k-point 78 :  0.00000.41670.0833  plane waves:  28772
 k-point 79 :  0.08330.41670.0833  plane waves:  28765
 k-point 80 :  0.16670.41670.0833  plane waves:  28765
 k-point 81 :  0.25000.41670.0833  plane waves:  28781
 k-point 82 :  0.33330.41670.0833  plane waves:  28792
 k-point 83 :  0.41670.41670.0833  plane waves:  28760
 k-point 84 :  0.50000.41670.0833  plane waves:  28762
 k-point 85 :  0.00000.50000.0833  plane waves:  28794
 k-point 86 :  0.08330.50000.0833  plane waves:  28810
 k-point 87 :  0.16670.50000.0833  plane waves:  28810
 k-point 88 :  0.25000.50000.0833  plane waves:  28814
 k-point 89 :  0.33330.50000.0833  plane waves:  28780
 k-point 90 :  0.41670.50000.0833  plane waves:  28762
 k-point 91 :  0.50000.50000.0833  plane waves:  28740
 k-point 92 :  0.00000.16670.1667  plane waves:  28729
 k-point 93 :  0.08330.16670.1667  plane waves:  28727
 k-point 94 :  0.16670.16670.1667  plane waves:  28717
 k-point 95 :  0.25000.16670.1667  plane waves:  28755
 k-point 96 :  0.33330.16670.1667  plane waves:  28760
 k-point 97 :  0.41670.16670.1667  plane waves:  28788
 k-point 98 :  0.50000.16670.1667  plane waves:  28808
 k-point 99 :  0.00000.25000.1667  plane waves:  28736
 k-point ** :  0.08330.25000.1667  plane waves:  28757
 k-point ** :  0.16670.25000.1667  plane waves:  28755
 k-point ** :  0.25000.25000.1667  plane waves:  28790
 k-point ** :  0.33330.25000.1667  plane waves:  28772
 k-point ** :  0.41670.25000.1667  plane waves:  28794
 k-point ** :  0.50000.25000.1667  plane waves:  28798
 k-point ** :  0.00000.33330.1667  plane waves:  28743
 k-point ** :  0.08330.33330.1667  plane waves:  28777
 k-point ** :  0.16670.33330.1667  plane waves:  28760
 k-point ** :  0.25000.33330.1667  plane waves:  28772
 k-point ** :  0.33330.33330.1667  plane waves:  28793
 k-point ** :  0.41670.33330.1667  plane waves:  28806
 k-point ** :  0.50000.33330.1667  plane waves:  28776
 k-point ** :  0.00000.41670.1667  plane waves:  28755
 k-point ** :  0.08330.41670.1667  plane waves:  28765
 k-point ** :  0.16670.41670.1667  plane waves:  28788
 k-point ** :  0.25000.41670.1667  plane waves:  28794
 k-point ** :  0.33330.41670.1667  plane waves:  28806
 k-point ** :  0.41670.41670.1667  plane waves:  28759
 k-point ** :  0.50000.41670.1667  plane waves:  28762
 k-point ** :  0.00000.50000.1667  plane waves:  28790
 k-point ** :  0.08330.50000.1667  plane waves:  28810
 k-point ** :  0.16670.50000.1667  plane waves:  28808
 k-point ** :  0.25000.50000.1667  plane waves:  28798
 k-point ** :  0.33330.50000.1667  plane waves:  28776
 k-point ** :  0.41670.50000.1667  plane waves:  28762
 k-point ** :  0.50000.50000.1667  plane waves:  28764
 k-point ** :  0.00000.25000.2500  plane waves:  28733
 k-point ** :  0.08330.25000.2500  plane waves:  28758
 k-point ** :  0.16670.25000.2500  plane waves:  28790
 k-point ** :  0.25000.25000.2500  plane waves:  28807
 k-point ** :  0.33330.25000.2500  plane waves:  28776
 k-point ** :  0.41670.25000.2500  plane waves:  28793
 k-point ** :  0.50000.25000.2500  plane waves:  28808
 k-point ** :  0.00000.33330.2500  plane waves:  28749
 k-point ** :  0.08330.33330.2500  plane waves:  28757
 k-point ** :  0.16670.33330.2500  plane waves:  28772
 k-point ** :  0.25000.33330.2500  plane waves:  28776
 k-point ** :  0.33330.33330.2500  plane waves:  28796
 k-point ** :  0.41670.33330.2500  plane waves:  28773
 k-point ** :  0.50000.33330.2500  plane waves:  28792
 k-point ** :  0.00000.41670.2500  plane waves:  28768
 k-point ** :  0.08330.41670.2500  plane waves:  28781
 k-point ** :  0.16670.41670.2500  plane waves:  28794
 k-point ** :  0.25000.41670.2500  plane waves:  28793
 k-point ** :  0.33330.41670.2500  plane waves:  28773
 k-point ** :  0.41670.41670.2500  plane waves:  28786
 k-point ** :  0.50000.41670.2500  plane waves:  28788
 k-point ** :  0.00000.50000.2500  plane waves:  28808
 k-point ** :  0.08330.50000.2500  plane waves:  28814
 k-point ** :  0.16670.50000.2500  plane waves:  28798
 k-point ** :  0.25000.50000.2500  plane waves:  28808
 k-point ** :  0.33330.50000.2500  plane waves:  28792
 k-point ** :  0.41670.50000.2500  plane waves:  28788
 k-point ** :  0.50000.50000.2500  plane waves:  28784
 k-point ** :  0.00000.33330.3333  plane waves:  28769
 k-point ** :  0.08330.33330.3333  plane waves:  28771
 k-point ** :  0.16670.33330.3333  plane waves:  28793
 k-point ** :  0.25000.33330.3333  plane waves:  28796
 k-point ** :  0.33330.33330.3333  plane waves:  28819
 k-point ** :  0.41670.33330.3333  plane waves:  28782
 k-point ** :  0.50000.33330.3333  plane waves:  28780
 k-point ** :  0.00000.41670.3333  plane waves:  28785
 k-point ** :  0.08330.41670.3333  plane waves:  28792
 k-point ** :  0.16670.41670.3333  plane waves:  28806
 k-point ** :  0.25000.41670.3333  plane waves:  28773
 k-point ** :  0.33330.41670.3333  plane waves:  28782
 k-point ** :  0.41670.41670.3333  plane waves:  28795
 k-point ** :  0.50000.41670.3333  plane waves:  28766
 k-point ** :  0.00000.50000.3333  plane waves:  28754
 k-point ** :  0.08330.50000.3333  plane waves:  28780
 k-point ** :  0.16670.50000.3333  plane waves:  28776
 k-point ** :  0.25000.50000.3333  plane waves:  28792
 k-point ** :  0.33330.50000.3333  plane waves:  28780
 k-point ** :  0.41670.50000.3333  plane waves:  28766
 k-point ** :  0.50000.50000.3333  plane waves:  28792
 k-point ** :  0.00000.41670.4167  plane waves:  28763
 k-point ** :  0.08330.41670.4167  plane waves:  28760
 k-point ** :  0.16670.41670.4167  plane waves:  28759
 k-point ** :  0.25000.41670.4167  plane waves:  28786
 k-point ** :  0.33330.41670.4167  plane waves:  28795
 k-point ** :  0.41670.41670.4167  plane waves:  28780
 k-point ** :  0.50000.41670.4167  plane waves:  28800
 k-point ** :  0.00000.50000.4167  plane waves:  28754
 k-point ** :  0.08330.50000.4167  plane waves:  28762
 k-point ** :  0.16670.50000.4167  plane waves:  28762
 k-point ** :  0.25000.50000.4167  plane waves:  28788
 k-point ** :  0.33330.50000.4167  plane waves:  28766
 k-point ** :  0.41670.50000.4167  plane waves:  28800
 k-point ** :  0.50000.50000.4167  plane waves:  28764
 k-point ** :  0.00000.50000.5000  plane waves:  28692
 k-point ** :  0.08330.50000.5000  plane waves:  28740
 k-point ** :  0.16670.50000.5000  plane waves:  28764
 k-point ** :  0.25000.50000.5000  plane waves:  28784
 k-point ** :  0.33330.50000.5000  plane waves:  28792
 k-point ** :  0.41670.50000.5000  plane waves:  28764
 k-point ** :  0.50000.50000.5000  plane waves:  28768

 maximum and minimum number of plane-waves per node :  28830 28671

 maximum number of plane-waves:  28830
 maximal index in each direction: 
   IXMAX= 19   IYMAX= 19   IZMAX= 19
   IXMIN=-19   IYMIN=-19   IZMIN=-19

 NGX is ok and might be reduce to  78
 NGY is ok and might be reduce to  78
 NGZ is ok and might be reduce to  78

 parallel 3dFFT wavefunction:
    minimum data exchange during FFTs selected (reduces bandwidth)
 parallel 3dFFT charge:
    minimum data exchange during FFTs selected (reduces bandwidth)

 For storing wavefunctions ******* MBYTES are necessary
 For predicting wavefunctions  209.68 MBYTES are necessary
Broyden mixing: mesh for mixing (old mesh)
   NGX = 39   NGY = 39   NGZ = 39
  (NGX  =160   NGY  =160   NGZ  =160)
 gives a total of  59319 points
 initial charge density was supplied:
 charge density of overlapping atoms calculated
 number of electron  352.0000000 magnetization 
 keeping initial charge density in first step


--------------------------------------------------------------------------------------------------------


 Maximum index for augmentation-charges        98683 (set IRDMAX)


--------------------------------------------------------------------------------------------------------


 First call to EWALD:  gamma=   0.208
 Maximum number of real-space cells 3x 3x 3
 Maximum number of reciprocal cells 3x 3x 3

    FEWALD:  VPU time    0.00: CPU time    0.01


----------------------------------------- Iteration    1(   1)  ---------------------------------------


    POTLOK:  VPU time    2.23: CPU time    3.85
    SETDIJ:  VPU time    1.92: CPU time    6.64
    EDDAV :  VPU time 2647.35: CPU time 3996.07
    DOS   :  VPU time   -0.09: CPU time   -4.74
    ------------------------------------------
      LOOP:  VPU time 2655.97: CPU time 4017.80

 eigenvalue-minimisations  : 83104
 total energy-change (2. order) : 0.4625703E+04  (-0.2070702E+05)
 number of electron  352.0000000 magnetization 
 augmentation part   352.0000000 magnetization 

 Free energy of the ion-electron system (eV)
  ---------------------------------------------------
  alpha Z        PSCENC =      3108.89941439
  Ewald energy   TEWEN  =    -30029.93168501
  -1/2 Hartree   DENC   =     -4483.57917073
  -V(xc)+E(xc)   XCENC  =       478.60137811
  PAW double counting   =     23920.39735419   -23172.13309131
  entropy T*S    EENTRO =        -0.00043766
  eigenvalues    EBANDS =      5169.65994069
  atomic energy  EATOM  =     29633.78979189
  ---------------------------------------------------
  free energy    TOTEN  =      4625.70349456 eV

  energy without entropy =     4625.70393222  energy(sigma->0) =     4625.70371339


--------------------------------------------------------------------------------------------------------




----------------------------------------- Iteration    1(   2)  ---------------------------------------


    EDDAV :  VPU time 2491.69: CPU time 3902.63
    DOS   :  VPU time   -0.00: CPU time   -0.03
    ------------------------------------------
      LOOP:  VPU time 2491.92: CPU time 3902.89

 eigenvalue-minimisations  : 83124
 total energy-change (2. order) :-0.4453906E+04  (-0.4271320E+04)
 number of electron  352.0000000 magnetization 
 augmentation part   352.0000000 magnetization 

 Free energy of the ion-electron system (eV)
  ---------------------------------------------------
  alpha Z        PSCENC =      3108.89941439
  Ewald energy   TEWEN  =    -30029.93168501
  -1/2 Hartree   DENC   =     -4483.57917073
  -V(xc)+E(xc)   XCENC  =       478.60137811
  PAW double counting   =     23920.39735419   -23172.13309131
  entropy T*S    EENTRO =        -0.00034628
  eigenvalues    EBANDS =       715.75342707
  atomic energy  EATOM  =     29633.78979189
  ---------------------------------------------------
  free energy    TOTEN  =       171.79707232 eV

  energy without entropy =      171.79741860  energy(sigma->0) =      171.79724546


--------------------------------------------------------------------------------------------------------




----------------------------------------- Iteration    1(   3)  ---------------------------------------


    EDDAV :  VPU time 4090.80: CPU time 7798.23
    DOS   :  VPU time    0.00: CPU time   -0.01
    ------------------------------------------
      LOOP:  VPU time 4091.02: CPU time 7798.49

 eigenvalue-minimisations  : 91996
 total energy-change (2. order) :-0.2727457E+03  (-0.2479886E+03)
 number of electron  352.0000000 magnetization 
 augmentation part   352.0000000 magnetization 

 Free energy of the ion-electron system (eV)
  ---------------------------------------------------
  alpha Z        PSCENC =      3108.89941439
  Ewald energy   TEWEN  =    -30029.93168501
  -1/2 Hartree   DENC   =     -4483.57917073
  -V(xc)+E(xc)   XCENC  =       478.60137811
  PAW double counting   =     23920.39735419   -23172.13309131
  entropy T*S    EENTRO =        -0.00085631
  eigenvalues    EBANDS =       443.00822430
  atomic energy  EATOM  =     29633.78979189
  ---------------------------------------------------
  free energy    TOTEN  =      -100.94864049 eV

  energy without entropy =     -100.94778418  energy(sigma->0) =     -100.94821233


--------------------------------------------------------------------------------------------------------




----------------------------------------- Iteration    1(   4)  ---------------------------------------


    EDDAV :  VPU time 5170.68: CPU time 5724.69
    DOS   :  VPU time   -0.00: CPU time   -0.04
    ------------------------------------------
      LOOP:  VPU time 5170.92: CPU time 5725.02

 eigenvalue-minimisations  : 89012
 total energy-change (2. order) :-0.1034864E+02  (-0.1017757E+02)
 number of electron  352.0000000 magnetization 
 augmentation part   352.0000000 magnetization 

 Free energy of the ion-electron system (eV)
  ---------------------------------------------------
  alpha Z        PSCENC =      3108.89941439
  Ewald energy   TEWEN  =    -30029.93168501
  -1/2 Hartree   DENC   =     -4483.57917073
  -V(xc)+E(xc)   XCENC  =       478.60137811
  PAW double counting   =     23920.39735419   -23172.13309131
  entropy T*S    EENTRO =        -0.00119681
  eigenvalues    EBANDS =       432.65992315
  atomic energy  EATOM  =     29633.78979189
  ---------------------------------------------------
  free energy    TOTEN  =      -111.29728214 eV

  energy without entropy =     -111.29608533  energy(sigma->0) =     -111.29668373


--------------------------------------------------------------------------------------------------------




----------------------------------------- Iteration    1(   5)  ---------------------------------------


    EDDAV :  VPU time 2742.29: CPU time 3185.32
    DOS   :  VPU time   -0.00: CPU time   -0.01
    CHARGE:  VPU time  353.18: CPU time 1729.76
    MIXING:  VPU time    0.26: CPU time    0.60
    ------------------------------------------
      LOOP:  VPU time 3099.91: CPU time 4970.90

 eigenvalue-minimisations  : 90904
 total energy-change (2. order) :-0.2125794E+00  (-0.2118567E+00)
 number of electron  352.0000007 magnetization 
 augmentation part   124.4918530 magnetization 

 Broyden mixing:
  rms(total) = 0.15697E+01    rms(broyden)= 0.15697E+01
  rms(prec ) = 0.24021E+01
  weight for this iteration     100.00

 Free energy of the ion-electron system (eV)
  ---------------------------------------------------
  alpha Z        PSCENC =      3108.89941439
  Ewald energy   TEWEN  =    -30029.93168501
  -1/2 Hartree   DENC   =     -4483.57917073
  -V(xc)+E(xc)   XCENC  =       478.60137811
  PAW double counting   =     23920.39735419   -23172.13309131
  entropy T*S    EENTRO =        -0.00119272
  eigenvalues    EBANDS =       432.44733966
  atomic energy  EATOM  =     29633.78979189
  ---------------------------------------------------
  free energy    TOTEN  =      -111.50986153 eV

  energy without entropy =     -111.50866881  energy(sigma->0) =     -111.50926517


--------------------------------------------------------------------------------------------------------




----------------------------------------- Iteration    1(   6)  ---------------------------------------


    POTLOK:  VPU time    9.77: CPU time   42.73
    SETDIJ:  VPU time    3.37: CPU time   18.23
    EDDAV :  VPU time 6404.50: CPU time 9005.71
    DOS   :  VPU time   -0.03: CPU time   -1.81
    CHARGE:  VPU time  108.62: CPU time 3506.79
    MIXING:  VPU time    0.97: CPU time    3.17
    ------------------------------------------
      LOOP:  VPU time 6529.86: CPU time12658.45

 eigenvalue-minimisations  : 87724
 total energy-change (2. order) : 0.7204192E+01  (-0.2095562E+01)
 number of electron  352.0000007 magnetization 
 augmentation part   128.8366296 magnetization 

 Broyden mixing:
  rms(total) = 0.39370E+00    rms(broyden)= 0.39370E+00
  rms(prec ) = 0.57438E+00
  weight for this iteration     100.00

 eigenvalues of (default mixing * dielectric matrix)
  average eigenvalue GAMMA=   1.1849
  1.1849

 Free energy of the ion-electron system (eV)
  ---------------------------------------------------
  alpha Z        PSCENC =      3108.89941439
  Ewald energy   TEWEN  =    -30029.93168501
  -1/2 Hartree   DENC   =     -4235.09070299
  -V(xc)+E(xc)   XCENC  =       467.59704936
  PAW double counting   =     23583.46618056   -22867.83945667
  entropy T*S    EENTRO =        -0.00108023
  eigenvalues    EBANDS =       234.80481957
  atomic energy  EATOM  =     29633.78979189
  ---------------------------------------------------
  free energy    TOTEN  =      -104.30566914 eV

  energy without entropy =     -104.30458890  energy(sigma->0) =     -104.30512902


--------------------------------------------------------------------------------------------------------




----------------------------------------- Iteration    1(   7)  ---------------------------------------


    POTLOK:  VPU time    2.84: CPU time    4.51
    SETDIJ:  VPU time    1.49: CPU time   10.71
    EDDAV :  VPU time 2913.15: CPU time 3948.97
    DOS   :  VPU time    0.00: CPU time   -0.00
    CHARGE:  VPU time  147.12: CPU time  202.04
    MIXING:  VPU time    1.58: CPU time    2.19
    ------------------------------------------
      LOOP:  VPU time 3066.55: CPU time 4168.85

 eigenvalue-minimisations  : 93096
 total energy-change (2. order) : 0.3469458E+00  (-0.1162155E+00)
 number of electron  352.0000007 magnetization 
 augmentation part   129.7822867 magnetization 

 Broyden mixing:
  rms(total) = 0.17683E+00    rms(broyden)= 0.17683E+00
  rms(prec ) = 0.20758E+00
  weight for this iteration     100.00

 eigenvalues of (default mixing * dielectric matrix)
  average eigenvalue GAMMA=   1.8245
  1.1897  2.4594

 Free energy of the ion-electron system (eV)
  ---------------------------------------------------
  alpha Z        PSCENC =      3108.89941439
  Ewald energy   TEWEN  =    -30029.93168501
  -1/2 Hartree   DENC   =     -4168.99244085
  -V(xc)+E(xc)   XCENC  =       464.54493312
  PAW double counting   =     23589.22403776   -22892.58567929
  entropy T*S    EENTRO =        -0.00107049
  eigenvalues    EBANDS =       191.09397517
  atomic energy  EATOM  =     29633.78979189
[...]
     68       0.3654      2.00000
     69       0.3660      2.00000
     70       0.3661      2.00000
     71       0.3662      2.00000
     72       0.3662      2.00000
     73       0.3665      2.00000
     74       0.3665      2.00000
     75       0.3666      2.00000
     76       0.3666      2.00000
     77       0.3673      2.00000
     78       0.3674      2.00000
     79       0.3677      2.00000
     80       0.3677      2.00000
     81       0.4724      2.00000
     82       0.4724      2.00000
     83       0.4734      2.00000
     84       0.4738      2.00000
     85       0.4754      2.00000
     86       0.4761      2.00000
     87       0.4761      2.00000
     88       0.4761      2.00000
     89       0.4762      2.00000
     90       0.4762      2.00000
     91       0.4762      2.00000
     92       0.4762      2.00000
     93       0.4763      2.00000
     94       0.4764      2.00000
     95       0.4764      2.00000
     96       0.4764      2.00000
     97       0.4765      2.00000
     98       0.4765      2.00000
     99       0.4765      2.00000
    100       0.4772      2.00000
    101       0.4788      2.00000
    102       0.4792      2.00000
    103       0.4803      2.00000
    104       0.4803      2.00000
    105       1.1017      2.00000
    106       1.1031      2.00000
    107       1.1031      2.00000
    108       1.1053      2.00000
    109       1.1055      2.00000
    110       1.1056      2.00000
    111       1.1056      2.00000
    112       1.1058      2.00000
    113       1.1060      2.00000
    114       1.1060      2.00000
    115       1.1060      2.00000
    116       1.1060      2.00000
    117       1.1061      2.00000
    118       1.1061      2.00000
    119       1.1061      2.00000
    120       1.1061      2.00000
    121       1.1063      2.00000
    122       1.1065      2.00000
    123       1.1065      2.00000
    124       1.1066      2.00000
    125       1.1068      2.00000
    126       1.1090      2.00000
    127       1.1090      2.00000
    128       1.1103      2.00000
    129       1.4968      2.00000
    130       1.4982      2.00000
    131       1.4983      2.00000
    132       1.4983      2.00000
    133       1.4994      2.00000
    134       1.4994      2.00000
    135       1.4996      2.00000
    136       1.4997      2.00000
    137       1.4998      2.00000
    138       1.4999      2.00000
    139       1.5001      2.00000
    140       1.5001      2.00000
    141       1.5012      2.00000
    142       1.5012      2.00000
    143       1.5013      2.00000
    144       1.5027      2.00000
    145       2.3894      2.00000
    146       2.3894      2.00000
    147       2.3896      2.00000
    148       2.3898      2.00000
    149       2.3899      2.00000
    150       2.3899      2.00000
    151       2.3899      2.00000
    152       2.3899      2.00000
    153       2.3900      2.00000
    154       2.3901      2.00000
    155       2.3901      2.00000
    156       2.3901      2.00000
    157       2.3903      2.00000
    158       2.3903      2.00000
    159       2.3903      2.00000
    160       2.3904      2.00000
    161       2.3905      2.00000
    162       2.3905      2.00000
    163       2.3905      2.00000
    164       2.3906      2.00000
    165       2.3906      2.00000
    166       2.3908      2.00000
    167       2.3911      2.00000
    168       2.3911      2.00000
    169       5.1275      0.00000
    170       5.1306      0.00000
    171       5.1306      0.00000
    172       5.1323      0.00000
    173       5.1329      0.00000
    174       5.1332      0.00000
    175       5.1332      0.00000
    176       5.1332      0.00000
    177       5.1332      0.00000
    178       5.1332      0.00000
    179       5.1333      0.00000
    180       5.1333      0.00000
    181       5.1335      0.00000
    182       5.1336      0.00000
    183       5.1336      0.00000
    184       5.1336      0.00000
    185       5.1336      0.00000
    186       5.1336      0.00000
    187       5.1336      0.00000
    188       5.1339      0.00000
    189       5.1345      0.00000
    190       5.1362      0.00000
    191       5.1362      0.00000
    192       5.1393      0.00000
    193       9.3130      0.00000
    194       9.3136      0.00000
    195       9.3160      0.00000
    196       9.3163      0.00000
    197       9.3170      0.00000
    198       9.3174      0.00000
    199       9.3174      0.00000
    200       9.3178      0.00000
    201       9.3179      0.00000
    202       9.3179      0.00000
    203       9.3180      0.00000
    204       9.3180      0.00000
    205       9.3180      0.00000
    206       9.3181      0.00000
    207       9.3182      0.00000
    208       9.3185      0.00000
    209       9.3190      0.00000
    210       9.3192      0.00000
    211       9.3195      0.00000
    212       9.3197      0.00000


--------------------------------------------------------------------------------------------------------


 soft charge-density along one line, spin component           1
         0         1         2         3         4         5         6         7         8         9
 total charge-density along one line
 
 pseudopotential strength for first ion, spin component:           1
-10.272  -0.000  -0.000  -0.000  -0.000  -0.036   0.000   0.000
 -0.000 -10.272   0.000  -0.000   0.000   0.000  -0.036  -0.000
 -0.000   0.000 -10.259   0.000  -0.000   0.000  -0.000  -0.038
 -0.000  -0.000   0.000 -10.272  -0.000   0.000   0.000  -0.000
 -0.000   0.000  -0.000  -0.000 -10.259   0.000  -0.000   0.000
 -0.036   0.000   0.000   0.000   0.000   0.275  -0.000  -0.000
  0.000  -0.036  -0.000   0.000  -0.000  -0.000   0.275   0.000
  0.000  -0.000  -0.038  -0.000   0.000  -0.000   0.000   0.275
  0.000   0.000  -0.000  -0.036   0.000  -0.000   0.000   0.000
  0.000  -0.000   0.000   0.000  -0.038  -0.000   0.000  -0.000
 -0.000   0.000   0.000   0.000  -0.000  -0.000   0.000  -0.000
  0.000  -0.000  -0.000  -0.000   0.000  -0.000   0.000   0.000
 -0.000  -0.000   0.000  -0.000  -0.000   0.000   0.000  -0.000
 -0.000  -0.000   0.000  -0.000  -0.000   0.000   0.000   0.000
 -0.000  -0.000   0.000  -0.000  -0.000   0.000   0.000  -0.000
  0.000   0.000  -0.000   0.000   0.000  -0.000  -0.000   0.000
  0.000  -0.000  -0.000   0.000   0.000  -0.000  -0.000   0.000
  0.000   0.000  -0.000   0.000   0.000  -0.000  -0.000   0.000
 total augmentation occupancy for first ion, spin component:           1
  1.904  -0.000  -0.002  -0.001  -0.001  -0.057   0.000   0.000   0.001   0.001   0.005   0.000   0.000   0.000  -0.000  -0.000
 -0.000   1.910  -0.001  -0.002  -0.003   0.000  -0.063   0.002   0.001   0.001   0.004  -0.000   0.000   0.000  -0.000  -0.000
 -0.002  -0.001   1.961  -0.000  -0.004   0.000   0.002  -0.104   0.001   0.003   0.013   0.003  -0.000  -0.000  -0.000  -0.000
 -0.001  -0.002  -0.000   1.917   0.001   0.001   0.001   0.001  -0.069   0.001   0.004  -0.000   0.000   0.000  -0.000  -0.000
 -0.001  -0.003  -0.004   0.001   1.948   0.001   0.001   0.003   0.001  -0.094   0.007   0.002   0.000   0.000   0.000  -0.000
 -0.057   0.000   0.000   0.001   0.001   0.146  -0.000   0.002  -0.000  -0.000  -0.001   0.001   0.001  -0.000   0.000  -0.000
  0.000  -0.063   0.002   0.001   0.001  -0.000   0.151  -0.003  -0.001   0.001  -0.001   0.002  -0.000  -0.000   0.000   0.000
  0.000   0.002  -0.104   0.001   0.003   0.002  -0.003   0.121  -0.002  -0.001  -0.009  -0.001   0.000   0.000  -0.000   0.000
  0.001   0.001   0.001  -0.069   0.001  -0.000  -0.001  -0.002   0.155  -0.002  -0.000   0.002  -0.000   0.001   0.000   0.000
  0.001   0.001   0.003   0.001  -0.094  -0.000   0.001  -0.001  -0.002   0.116  -0.005  -0.001  -0.000  -0.000   0.001   0.000
  0.005   0.004   0.013   0.004   0.007  -0.001  -0.001  -0.009  -0.000  -0.005   1.022  -0.313   0.000  -0.000   0.002  -0.000
  0.000  -0.000   0.003  -0.000   0.002   0.001   0.002  -0.001   0.002  -0.001  -0.313   0.185   0.000  -0.000  -0.001  -0.000
  0.000   0.000  -0.000   0.000   0.000   0.001  -0.000   0.000  -0.000  -0.000   0.000   0.000   0.124   0.001   0.002  -0.009
  0.000   0.000  -0.000   0.000   0.000  -0.000  -0.000   0.000   0.001  -0.000  -0.000  -0.000   0.001   0.124  -0.000  -0.000
 -0.000  -0.000  -0.000  -0.000   0.000   0.000   0.000  -0.000   0.000   0.001   0.002  -0.001   0.002  -0.000   0.124  -0.000
 -0.000  -0.000  -0.000  -0.000  -0.000  -0.000   0.000   0.000   0.000   0.000  -0.000  -0.000  -0.009  -0.000  -0.000   0.001
 -0.000  -0.000   0.000  -0.000   0.000   0.000   0.000  -0.000  -0.000  -0.000   0.000   0.000  -0.000  -0.009  -0.000   0.000
  0.000   0.000   0.000   0.000  -0.000  -0.000  -0.000   0.000  -0.000  -0.000  -0.000   0.000  -0.000  -0.000  -0.009   0.000


------------------------ aborting loop because EDIFF is reached ----------------------------------------




--------------------------------------------------------------------------------------------------------


    CHARGE:  VPU time  122.64: CPU time  122.62
    FORLOC:  VPU time    0.16: CPU time    0.17
    FORNL :  VPU time  970.51: CPU time  970.15
    STRESS:  VPU time 2527.41: CPU time 2526.51
    FORCOR:  VPU time    1.13: CPU time    1.15
    FORHAR:  VPU time    0.36: CPU time    0.37
    MIXING:  VPU time    0.02: CPU time    0.02


--------------------------------------------------------------------------------------------------------



  FREE ENERGIE OF THE ION-ELECTRON SYSTEM (eV)
  ---------------------------------------------------
  free  energy   TOTEN  =      -103.889952 eV

  energy  without entropy=     -103.888896  energy(sigma->0) =     -103.889424
 

  FORCE on cell =-STRESS in cart. coord.  units (eV/reduce length):
  Direction    X        Y        Z        XY       YZ       ZX
  --------------------------------------------------------------------------------------
  Alpha Z   3108.90   3108.90   3108.90
  Ewald   -10010.04 -10010.01 -10010.01     -0.00     -0.00     -0.00
  Hartree   1381.22   1381.24   1381.24     -0.00     -0.00     -0.00
  E(xc)    -1580.63  -1580.63  -1580.63     -0.00     -0.00      0.00
  Local     2454.06   2454.01   2454.01      0.00     -0.00     -0.00
  n-local  -1641.67  -1647.81  -1635.53      3.55      2.88      2.22
  augment   1376.27   1376.27   1376.27     -0.00     -0.00     -0.00
  Kinetic   4885.97   4879.93   4892.02      0.43     -0.55     -1.52
  -------------------------------------------------------------------------------------
  Total      -25.92    -25.92    -25.92      0.00      0.00     -0.00
  in kB      -67.32    -67.32    -67.32      0.00      0.00     -0.00
  external pressure =      -67.32 kB  Pullay stress =        0.00 kB


 VOLUME and BASIS-vectors are now :
 -----------------------------------------------------------------------------
  energy-cutoff  :      750.00
  volume of cell :      616.86
      direct lattice vectors                 reciprocal lattice vectors
     8.512617881  0.000000000  0.000000000     0.117472676  0.000000000  0.000000000
     0.000000000  8.512617881  0.000000000     0.000000000  0.117472676  0.000000000
     0.000000000  0.000000000  8.512617881     0.000000000  0.000000000  0.117472676

  length of vectors
     8.512617881  8.512617881  8.512617881     0.117472676  0.117472676  0.117472676


 FORCES acting on ions
    electron-ion (+dipol)            ewald-force                    non-local-force                 convergence-correction
 -----------------------------------------------------------------------------------------------
   0.367E+01 0.294E-13 0.150E-07   -.367E+01 0.604E-13 -.426E-13   -.366E-01 0.419E-21 0.148E-20   -.359E-04 0.854E-13 -.114E-12
   -.958E+00 0.763E-13 -.150E-07   0.968E+00 -.142E-12 0.000E+00   -.642E-02 0.307E-20 -.116E-19   0.148E-05 0.823E-13 -.169E-12
   0.305E+00 -.304E-13 -.924E-12   -.307E+00 -.131E-12 -.711E-13   0.112E-02 -.677E-20 0.196E-20   -.388E-05 -.195E-12 -.795E-13
   -.247E+00 0.126E-11 -.115E-11   0.241E+00 -.128E-12 -.711E-13   0.377E-02 -.206E-20 -.109E-19   0.113E-04 -.196E-12 -.954E-13
   0.305E+00 0.366E-13 0.117E-10   -.307E+00 -.153E-12 -.178E-13   0.112E-02 -.367E-20 -.104E-20   -.354E-05 0.813E-13 0.408E-14
   -.247E+00 0.307E-13 0.128E-10   0.241E+00 -.156E-12 -.142E-13   0.377E-02 -.470E-20 0.353E-21   0.112E-04 0.784E-13 0.549E-13
   0.128E+00 -.373E-13 -.140E-11   -.127E+00 -.114E-12 -.320E-13   -.131E-02 0.414E-20 0.122E-19   -.216E-05 -.192E-12 -.428E-13
   -.118E+00 -.472E-11 -.999E-13   0.118E+00 -.114E-12 0.000E+00   -.571E-03 0.161E-19 0.144E-20   0.531E-05 -.192E-12 -.219E-13
   -.464E+00 -.889E+00 0.778E-12   0.465E+00 0.894E+00 -.124E-12   0.411E-02 0.179E-02 -.266E-21   0.238E-05 0.560E-05 -.156E-12
   -.467E+00 0.882E+00 -.560E-11   0.468E+00 -.887E+00 -.675E-13   0.401E-02 -.172E-02 0.140E-20   0.445E-05 -.243E-05 -.946E-13
   -.464E+00 0.889E+00 0.696E-12   0.465E+00 -.894E+00 -.142E-12   0.411E-02 -.179E-02 -.111E-20   0.238E-05 -.560E-05 -.115E-12
   -.467E+00 -.882E+00 0.654E-11   0.468E+00 0.887E+00 -.284E-13   0.401E-02 0.172E-02 -.724E-21   0.445E-05 0.243E-05 -.768E-13
   -.133E-01 -.736E-01 0.611E-11   0.142E-01 0.735E-01 -.746E-13   -.593E-03 0.980E-04 0.470E-20   -.333E-05 0.253E-05 0.435E-13
   -.147E-01 0.735E-01 0.723E-11   0.156E-01 -.734E-01 -.355E-14   -.594E-03 -.105E-03 -.751E-21   -.336E-05 -.148E-05 -.990E-14
   -.133E-01 0.736E-01 0.620E-11   0.142E-01 -.735E-01 -.711E-13   -.593E-03 -.980E-04 0.253E-20   -.333E-05 -.253E-05 0.108E-13
   -.147E-01 -.735E-01 -.505E-11   0.156E-01 0.734E-01 -.711E-13   -.594E-03 0.105E-03 -.887E-21   -.336E-05 0.148E-05 -.378E-13
   -.464E+00 0.314E-13 -.889E+00   0.465E+00 -.817E-13 0.894E+00   0.411E-02 0.742E-22 0.179E-02   0.231E-05 0.558E-13 0.566E-05
   -.467E+00 0.263E-13 0.882E+00   0.468E+00 -.817E-13 -.887E+00   0.401E-02 -.289E-20 -.172E-02   0.438E-05 0.778E-13 -.249E-05
   -.133E-01 0.642E-12 -.736E-01   0.142E-01 -.746E-13 0.735E-01   -.593E-03 -.154E-20 0.980E-04   -.331E-05 -.166E-12 0.260E-05
   -.147E-01 0.753E-11 0.735E-01   0.156E-01 -.746E-13 -.734E-01   -.594E-03 0.147E-20 -.105E-03   -.334E-05 -.187E-12 -.155E-05
   -.464E+00 0.516E-13 0.889E+00   0.465E+00 -.568E-13 -.894E+00   0.411E-02 0.370E-20 -.179E-02   0.231E-05 0.933E-13 -.566E-05
   -.467E+00 0.379E-13 -.882E+00   0.468E+00 -.568E-13 0.887E+00   0.401E-02 -.415E-20 0.172E-02   0.438E-05 0.102E-12 0.249E-05
   -.133E-01 0.757E-12 0.736E-01   0.142E-01 -.426E-13 -.735E-01   -.593E-03 -.303E-20 -.980E-04   -.331E-05 -.202E-12 -.260E-05
   -.147E-01 -.488E-11 -.735E-01   0.156E-01 -.426E-13 0.734E-01   -.594E-03 0.296E-20 0.105E-03   -.334E-05 -.210E-12 0.155E-05
   0.573E+00 0.213E-02 0.213E-02   -.578E+00 -.214E-02 -.214E-02   0.279E-02 0.331E-05 0.331E-05   -.221E-05 0.400E-06 0.400E-06
   -.323E+00 -.623E-03 -.623E-03   0.325E+00 0.640E-03 0.640E-03   -.947E-03 -.148E-04 -.148E-04   0.626E-05 0.146E-05 0.146E-05
   0.573E+00 -.213E-02 0.213E-02   -.578E+00 0.214E-02 -.214E-02   0.279E-02 -.331E-05 0.331E-05   -.221E-05 -.400E-06 0.400E-06
   -.323E+00 0.623E-03 -.623E-03   0.325E+00 -.640E-03 0.640E-03   -.947E-03 0.148E-04 -.148E-04   0.626E-05 -.146E-05 0.146E-05
   0.573E+00 0.213E-02 -.213E-02   -.578E+00 -.214E-02 0.214E-02   0.279E-02 0.331E-05 -.331E-05   -.221E-05 0.400E-06 -.400E-06
   -.323E+00 -.623E-03 0.623E-03   0.325E+00 0.640E-03 -.640E-03   -.947E-03 -.148E-04 0.148E-04   0.626E-05 0.146E-05 -.146E-05
   0.573E+00 -.213E-02 -.213E-02   -.578E+00 0.214E-02 0.214E-02   0.279E-02 -.331E-05 -.331E-05   -.221E-05 -.400E-06 -.400E-06
   -.323E+00 0.623E-03 0.623E-03   0.325E+00 -.640E-03 -.640E-03   -.947E-03 0.148E-04 0.148E-04   0.626E-05 -.146E-05 -.146E-05
 -----------------------------------------------------------------------------------------------
   -.186E-05 0.407E-11 0.382E-10   -.312E-13 -.146E-14 0.970E-13   0.144E-05 0.339E-20 -.269E-18   0.435E-06 -.516E-12 -.486E-12
 
 
 POSITION                                       TOTAL-FORCE (eV/Angst)
 -----------------------------------------------------------------------------------
      0.01000      0.00000      0.00000        -0.033257      0.000000      0.000000
      4.25631      0.00000      0.00000         0.003967      0.000000     -0.000000
      0.00000      4.25631      0.00000        -0.000640     -0.000000      0.000000
      4.25631      4.25631      0.00000        -0.002105      0.000000      0.000000
      0.00000      0.00000      4.25631        -0.000640      0.000000     -0.000000
      4.25631      0.00000      4.25631        -0.002105      0.000000     -0.000000
      0.00000      4.25631      4.25631         0.000107     -0.000000     -0.000000
      4.25631      4.25631      4.25631        -0.000013      0.000000     -0.000000
      2.12815      2.12815      0.00000         0.005102      0.006520     -0.000000
      6.38446      2.12815      0.00000         0.004900     -0.006241      0.000000
      2.12815      6.38446      0.00000         0.005102     -0.006520     -0.000000
      6.38446      6.38446      0.00000         0.004900      0.006241      0.000000
      2.12815      2.12815      4.25631         0.000251     -0.000035      0.000000
      6.38446      2.12815      4.25631         0.000251      0.000038     -0.000000
      2.12815      6.38446      4.25631         0.000251      0.000035      0.000000
      6.38446      6.38446      4.25631         0.000251     -0.000038     -0.000000
      2.12815      0.00000      2.12815         0.005102     -0.000000      0.006520
      6.38446      0.00000      2.12815         0.004900     -0.000000     -0.006241
      2.12815      4.25631      2.12815         0.000251     -0.000000     -0.000035
      6.38446      4.25631      2.12815         0.000251     -0.000000      0.000038
      2.12815      0.00000      6.38446         0.005102      0.000000     -0.006520
      6.38446      0.00000      6.38446         0.004900     -0.000000      0.006241
      2.12815      4.25631      6.38446         0.000251      0.000000      0.000035
      6.38446      4.25631      6.38446         0.000251      0.000000     -0.000038
      0.00000      2.12815      2.12815        -0.002626     -0.000001     -0.000001
      4.25631      2.12815      2.12815         0.000793      0.000004      0.000004
      0.00000      6.38446      2.12815        -0.002626      0.000001     -0.000001
      4.25631      6.38446      2.12815         0.000793     -0.000004      0.000004
      0.00000      2.12815      6.38446        -0.002626     -0.000001      0.000001
      4.25631      2.12815      6.38446         0.000793      0.000004     -0.000004
      0.00000      6.38446      6.38446        -0.002626      0.000001      0.000001
      4.25631      6.38446      6.38446         0.000793     -0.000004     -0.000004
 -----------------------------------------------------------------------------------
    total drift:                                0.000000      0.000000      0.000000


--------------------------------------------------------------------------------------------------------



 mean value of Nose-termostat <S>:     1.000 mean value of <T> :     0.000
 mean temperature <T/S>/<1/S>  :     0.000

     LOOP+:  VPU time88063.04: CPU time********
  
  
 General timing and accounting informations for this job:
 ========================================================
  
                  Total CPU time used (sec):    88421.967
                            User time (sec):    59326.938
                          System time (sec):    29095.029
                         Elapsed time (sec):   173934.026
  
                   Maximum memory used (kb):     9070580.
                   Average memory used (kb):           0.
  
                          Minor page faults:     12353885
                          Major page faults:      1325851
                 Voluntary context switches:      1736547
