<?xml version="1.0" encoding="ISO-8859-1"?>
<modeling>
 <generator>
  <i name="program" type="string">vasp</i>
  <i name="version" type="string">4.6.28 </i>
  <i name="subversion" type="string">25Jul05 complex  parallel</i>
  <i name="platform" type="string">LinuxIFC</i>
  <i name="date" type="string">2017 01 11</i>
  <i name="time" type="string">01:12:26</i>
 </generator>
 <incar>
  <i type="string" name="PREC">accurate</i>
  <i type="int" name="IALGO">    38</i>
  <i type="logical" name="ADDGRID"> T  </i>
  <i name="EDIFF">      0.00000001</i>
  <i type="int" name="IBRION">    -1</i>
  <i name="ENCUT">    750.00000000</i>
  <i type="logical" name="LREAL"> F  </i>
  <i type="int" name="ISMEAR">     0</i>
  <i name="SIGMA">      0.01000000</i>
  <i type="logical" name="LWAVE"> F  </i>
  <i type="logical" name="LCHARG"> F  </i>
 </incar>
 <kpoints>
  <generation param="Gamma">
   <v type="int" name="divisions">      12      12      12</v>
   <v name="usershift">      0.00000000      0.00000000      0.00000000</v>
   <v name="genvec1">      0.08333333      0.00000000      0.00000000</v>
   <v name="genvec2">      0.00000000      0.08333333      0.00000000</v>
   <v name="genvec3">      0.00000000      0.00000000      0.08333333</v>
   <v name="shift">      0.00000000      0.00000000      0.00000000</v>
  </generation>
  <varray name="kpointlist" >
   <v>       0.00000000      0.00000000      0.00000000</v>
   <v>       0.08333333      0.00000000      0.00000000</v>
   <v>       0.16666667      0.00000000      0.00000000</v>
   <v>       0.25000000      0.00000000      0.00000000</v>
   <v>       0.33333333      0.00000000      0.00000000</v>
   <v>       0.41666667      0.00000000      0.00000000</v>
   <v>       0.50000000      0.00000000      0.00000000</v>
   <v>       0.00000000      0.08333333      0.00000000</v>
   <v>       0.08333333      0.08333333      0.00000000</v>
   <v>       0.16666667      0.08333333      0.00000000</v>
   <v>       0.25000000      0.08333333      0.00000000</v>
   <v>       0.33333333      0.08333333      0.00000000</v>
   <v>       0.41666667      0.08333333      0.00000000</v>
   <v>       0.50000000      0.08333333      0.00000000</v>
   <v>       0.00000000      0.16666667      0.00000000</v>
   <v>       0.08333333      0.16666667      0.00000000</v>
   <v>       0.16666667      0.16666667      0.00000000</v>
   <v>       0.25000000      0.16666667      0.00000000</v>
   <v>       0.33333333      0.16666667      0.00000000</v>
   <v>       0.41666667      0.16666667      0.00000000</v>
   <v>       0.50000000      0.16666667      0.00000000</v>
   <v>       0.00000000      0.25000000      0.00000000</v>
   <v>       0.08333333      0.25000000      0.00000000</v>
   <v>       0.16666667      0.25000000      0.00000000</v>
   <v>       0.25000000      0.25000000      0.00000000</v>
   <v>       0.33333333      0.25000000      0.00000000</v>
   <v>       0.41666667      0.25000000      0.00000000</v>
   <v>       0.50000000      0.25000000      0.00000000</v>
   <v>       0.00000000      0.33333333      0.00000000</v>
   <v>       0.08333333      0.33333333      0.00000000</v>
   <v>       0.16666667      0.33333333      0.00000000</v>
   <v>       0.25000000      0.33333333      0.00000000</v>
   <v>       0.33333333      0.33333333      0.00000000</v>
   <v>       0.41666667      0.33333333      0.00000000</v>
   <v>       0.50000000      0.33333333      0.00000000</v>
   <v>       0.00000000      0.41666667      0.00000000</v>
   <v>       0.08333333      0.41666667      0.00000000</v>
   <v>       0.16666667      0.41666667      0.00000000</v>
   <v>       0.25000000      0.41666667      0.00000000</v>
   <v>       0.33333333      0.41666667      0.00000000</v>
   <v>       0.41666667      0.41666667      0.00000000</v>
   <v>       0.50000000      0.41666667      0.00000000</v>
   <v>       0.00000000      0.50000000      0.00000000</v>
   <v>       0.08333333      0.50000000      0.00000000</v>
   <v>       0.16666667      0.50000000      0.00000000</v>
   <v>       0.25000000      0.50000000      0.00000000</v>
   <v>       0.33333333      0.50000000      0.00000000</v>
   <v>       0.41666667      0.50000000      0.00000000</v>
   <v>       0.50000000      0.50000000      0.00000000</v>
   <v>       0.00000000      0.08333333      0.08333333</v>
   <v>       0.08333333      0.08333333      0.08333333</v>
   <v>       0.16666667      0.08333333      0.08333333</v>
   <v>       0.25000000      0.08333333      0.08333333</v>
   <v>       0.33333333      0.08333333      0.08333333</v>
   <v>       0.41666667      0.08333333      0.08333333</v>
   <v>       0.50000000      0.08333333      0.08333333</v>
   <v>       0.00000000      0.16666667      0.08333333</v>
   <v>       0.08333333      0.16666667      0.08333333</v>
   <v>       0.16666667      0.16666667      0.08333333</v>
   <v>       0.25000000      0.16666667      0.08333333</v>
   <v>       0.33333333      0.16666667      0.08333333</v>
   <v>       0.41666667      0.16666667      0.08333333</v>
   <v>       0.50000000      0.16666667      0.08333333</v>
   <v>       0.00000000      0.25000000      0.08333333</v>
   <v>       0.08333333      0.25000000      0.08333333</v>
   <v>       0.16666667      0.25000000      0.08333333</v>
   <v>       0.25000000      0.25000000      0.08333333</v>
   <v>       0.33333333      0.25000000      0.08333333</v>
   <v>       0.41666667      0.25000000      0.08333333</v>
   <v>       0.50000000      0.25000000      0.08333333</v>
   <v>       0.00000000      0.33333333      0.08333333</v>
   <v>       0.08333333      0.33333333      0.08333333</v>
   <v>       0.16666667      0.33333333      0.08333333</v>
   <v>       0.25000000      0.33333333      0.08333333</v>
   <v>       0.33333333      0.33333333      0.08333333</v>
   <v>       0.41666667      0.33333333      0.08333333</v>
   <v>       0.50000000      0.33333333      0.08333333</v>
   <v>       0.00000000      0.41666667      0.08333333</v>
   <v>       0.08333333      0.41666667      0.08333333</v>
   <v>       0.16666667      0.41666667      0.08333333</v>
   <v>       0.25000000      0.41666667      0.08333333</v>
   <v>       0.33333333      0.41666667      0.08333333</v>
   <v>       0.41666667      0.41666667      0.08333333</v>
   <v>       0.50000000      0.41666667      0.08333333</v>
   <v>       0.00000000      0.50000000      0.08333333</v>
   <v>       0.08333333      0.50000000      0.08333333</v>
   <v>       0.16666667      0.50000000      0.08333333</v>
   <v>       0.25000000      0.50000000      0.08333333</v>
   <v>       0.33333333      0.50000000      0.08333333</v>
   <v>       0.41666667      0.50000000      0.08333333</v>
   <v>       0.50000000      0.50000000      0.08333333</v>
   <v>       0.00000000      0.16666667      0.16666667</v>
   <v>       0.08333333      0.16666667      0.16666667</v>
   <v>       0.16666667      0.16666667      0.16666667</v>
   <v>       0.25000000      0.16666667      0.16666667</v>
   <v>       0.33333333      0.16666667      0.16666667</v>
   <v>       0.41666667      0.16666667      0.16666667</v>
   <v>       0.50000000      0.16666667      0.16666667</v>
   <v>       0.00000000      0.25000000      0.16666667</v>
   <v>       0.08333333      0.25000000      0.16666667</v>
   <v>       0.16666667      0.25000000      0.16666667</v>
   <v>       0.25000000      0.25000000      0.16666667</v>
   <v>       0.33333333      0.25000000      0.16666667</v>
   <v>       0.41666667      0.25000000      0.16666667</v>
   <v>       0.50000000      0.25000000      0.16666667</v>
   <v>       0.00000000      0.33333333      0.16666667</v>
   <v>       0.08333333      0.33333333      0.16666667</v>
   <v>       0.16666667      0.33333333      0.16666667</v>
   <v>       0.25000000      0.33333333      0.16666667</v>
   <v>       0.33333333      0.33333333      0.16666667</v>
   <v>       0.41666667      0.33333333      0.16666667</v>
   <v>       0.50000000      0.33333333      0.16666667</v>
   <v>       0.00000000      0.41666667      0.16666667</v>
   <v>       0.08333333      0.41666667      0.16666667</v>
   <v>       0.16666667      0.41666667      0.16666667</v>
   <v>       0.25000000      0.41666667      0.16666667</v>
   <v>       0.33333333      0.41666667      0.16666667</v>
   <v>       0.41666667      0.41666667      0.16666667</v>
   <v>       0.50000000      0.41666667      0.16666667</v>
   <v>       0.00000000      0.50000000      0.16666667</v>
   <v>       0.08333333      0.50000000      0.16666667</v>
   <v>       0.16666667      0.50000000      0.16666667</v>
   <v>       0.25000000      0.50000000      0.16666667</v>
   <v>       0.33333333      0.50000000      0.16666667</v>
   <v>       0.41666667      0.50000000      0.16666667</v>
   <v>       0.50000000      0.50000000      0.16666667</v>
   <v>       0.00000000      0.25000000      0.25000000</v>
   <v>       0.08333333      0.25000000      0.25000000</v>
   <v>       0.16666667      0.25000000      0.25000000</v>
   <v>       0.25000000      0.25000000      0.25000000</v>
   <v>       0.33333333      0.25000000      0.25000000</v>
   <v>       0.41666667      0.25000000      0.25000000</v>
   <v>       0.50000000      0.25000000      0.25000000</v>
   <v>       0.00000000      0.33333333      0.25000000</v>
   <v>       0.08333333      0.33333333      0.25000000</v>
   <v>       0.16666667      0.33333333      0.25000000</v>
   <v>       0.25000000      0.33333333      0.25000000</v>
   <v>       0.33333333      0.33333333      0.25000000</v>
   <v>       0.41666667      0.33333333      0.25000000</v>
   <v>       0.50000000      0.33333333      0.25000000</v>
   <v>       0.00000000      0.41666667      0.25000000</v>
   <v>       0.08333333      0.41666667      0.25000000</v>
   <v>       0.16666667      0.41666667      0.25000000</v>
   <v>       0.25000000      0.41666667      0.25000000</v>
   <v>       0.33333333      0.41666667      0.25000000</v>
   <v>       0.41666667      0.41666667      0.25000000</v>
   <v>       0.50000000      0.41666667      0.25000000</v>
   <v>       0.00000000      0.50000000      0.25000000</v>
   <v>       0.08333333      0.50000000      0.25000000</v>
   <v>       0.16666667      0.50000000      0.25000000</v>
   <v>       0.25000000      0.50000000      0.25000000</v>
   <v>       0.33333333      0.50000000      0.25000000</v>
   <v>       0.41666667      0.50000000      0.25000000</v>
   <v>       0.50000000      0.50000000      0.25000000</v>
   <v>       0.00000000      0.33333333      0.33333333</v>
   <v>       0.08333333      0.33333333      0.33333333</v>
   <v>       0.16666667      0.33333333      0.33333333</v>
   <v>       0.25000000      0.33333333      0.33333333</v>
   <v>       0.33333333      0.33333333      0.33333333</v>
   <v>       0.41666667      0.33333333      0.33333333</v>
   <v>       0.50000000      0.33333333      0.33333333</v>
   <v>       0.00000000      0.41666667      0.33333333</v>
   <v>       0.08333333      0.41666667      0.33333333</v>
   <v>       0.16666667      0.41666667      0.33333333</v>
   <v>       0.25000000      0.41666667      0.33333333</v>
   <v>       0.33333333      0.41666667      0.33333333</v>
   <v>       0.41666667      0.41666667      0.33333333</v>
   <v>       0.50000000      0.41666667      0.33333333</v>
   <v>       0.00000000      0.50000000      0.33333333</v>
   <v>       0.08333333      0.50000000      0.33333333</v>
   <v>       0.16666667      0.50000000      0.33333333</v>
   <v>       0.25000000      0.50000000      0.33333333</v>
   <v>       0.33333333      0.50000000      0.33333333</v>
   <v>       0.41666667      0.50000000      0.33333333</v>
   <v>       0.50000000      0.50000000      0.33333333</v>
   <v>       0.00000000      0.41666667      0.41666667</v>
   <v>       0.08333333      0.41666667      0.41666667</v>
   <v>       0.16666667      0.41666667      0.41666667</v>
   <v>       0.25000000      0.41666667      0.41666667</v>
   <v>       0.33333333      0.41666667      0.41666667</v>
   <v>       0.41666667      0.41666667      0.41666667</v>
   <v>       0.50000000      0.41666667      0.41666667</v>
   <v>       0.00000000      0.50000000      0.41666667</v>
   <v>       0.08333333      0.50000000      0.41666667</v>
   <v>       0.16666667      0.50000000      0.41666667</v>
   <v>       0.25000000      0.50000000      0.41666667</v>
   <v>       0.33333333      0.50000000      0.41666667</v>
   <v>       0.41666667      0.50000000      0.41666667</v>
   <v>       0.50000000      0.50000000      0.41666667</v>
   <v>       0.00000000      0.50000000      0.50000000</v>
   <v>       0.08333333      0.50000000      0.50000000</v>
   <v>       0.16666667      0.50000000      0.50000000</v>
   <v>       0.25000000      0.50000000      0.50000000</v>
   <v>       0.33333333      0.50000000      0.50000000</v>
   <v>       0.41666667      0.50000000      0.50000000</v>
   <v>       0.50000000      0.50000000      0.50000000</v>
  </varray>
  <varray name="weights" >
   <v>       0.00057870</v>
   <v>       0.00115741</v>
   <v>       0.00115741</v>
   <v>       0.00115741</v>
   <v>       0.00115741</v>
   <v>       0.00115741</v>
   <v>       0.00057870</v>
   <v>       0.00231481</v>
   <v>       0.00462963</v>
   <v>       0.00462963</v>
   <v>       0.00462963</v>
   <v>       0.00462963</v>
   <v>       0.00462963</v>
   <v>       0.00231481</v>
   <v>       0.00231481</v>
   <v>       0.00462963</v>
   <v>       0.00462963</v>
   <v>       0.00462963</v>
   <v>       0.00462963</v>
   <v>       0.00462963</v>
   <v>       0.00231481</v>
   <v>       0.00231481</v>
   <v>       0.00462963</v>
   <v>       0.00462963</v>
   <v>       0.00462963</v>
   <v>       0.00462963</v>
   <v>       0.00462963</v>
   <v>       0.00231481</v>
   <v>       0.00231481</v>
   <v>       0.00462963</v>
   <v>       0.00462963</v>
   <v>       0.00462963</v>
   <v>       0.00462963</v>
   <v>       0.00462963</v>
   <v>       0.00231481</v>
   <v>       0.00231481</v>
   <v>       0.00462963</v>
   <v>       0.00462963</v>
   <v>       0.00462963</v>
   <v>       0.00462963</v>
   <v>       0.00462963</v>
   <v>       0.00231481</v>
   <v>       0.00115741</v>
   <v>       0.00231481</v>
   <v>       0.00231481</v>
   <v>       0.00231481</v>
   <v>       0.00231481</v>
   <v>       0.00231481</v>
   <v>       0.00115741</v>
   <v>       0.00231481</v>
   <v>       0.00462963</v>
   <v>       0.00462963</v>
   <v>       0.00462963</v>
   <v>       0.00462963</v>
   <v>       0.00462963</v>
   <v>       0.00231481</v>
   <v>       0.00462963</v>
   <v>       0.00925926</v>
   <v>       0.00925926</v>
   <v>       0.00925926</v>
   <v>       0.00925926</v>
   <v>       0.00925926</v>
   <v>       0.00462963</v>
   <v>       0.00462963</v>
   <v>       0.00925926</v>
   <v>       0.00925926</v>
   <v>       0.00925926</v>
   <v>       0.00925926</v>
   <v>       0.00925926</v>
   <v>       0.00462963</v>
   <v>       0.00462963</v>
   <v>       0.00925926</v>
   <v>       0.00925926</v>
   <v>       0.00925926</v>
   <v>       0.00925926</v>
   <v>       0.00925926</v>
   <v>       0.00462963</v>
   <v>       0.00462963</v>
   <v>       0.00925926</v>
   <v>       0.00925926</v>
   <v>       0.00925926</v>
   <v>       0.00925926</v>
   <v>       0.00925926</v>
   <v>       0.00462963</v>
   <v>       0.00231481</v>
   <v>       0.00462963</v>
   <v>       0.00462963</v>
   <v>       0.00462963</v>
   <v>       0.00462963</v>
   <v>       0.00462963</v>
   <v>       0.00231481</v>
   <v>       0.00231481</v>
   <v>       0.00462963</v>
   <v>       0.00462963</v>
   <v>       0.00462963</v>
   <v>       0.00462963</v>
   <v>       0.00462963</v>
   <v>       0.00231481</v>
   <v>       0.00462963</v>
   <v>       0.00925926</v>
   <v>       0.00925926</v>
   <v>       0.00925926</v>
   <v>       0.00925926</v>
   <v>       0.00925926</v>
   <v>       0.00462963</v>
   <v>       0.00462963</v>
   <v>       0.00925926</v>
   <v>       0.00925926</v>
   <v>       0.00925926</v>
   <v>       0.00925926</v>
   <v>       0.00925926</v>
   <v>       0.00462963</v>
   <v>       0.00462963</v>
   <v>       0.00925926</v>
   <v>       0.00925926</v>
   <v>       0.00925926</v>
   <v>       0.00925926</v>
   <v>       0.00925926</v>
   <v>       0.00462963</v>
   <v>       0.00231481</v>
   <v>       0.00462963</v>
   <v>       0.00462963</v>
   <v>       0.00462963</v>
   <v>       0.00462963</v>
   <v>       0.00462963</v>
   <v>       0.00231481</v>
   <v>       0.00231481</v>
   <v>       0.00462963</v>
   <v>       0.00462963</v>
   <v>       0.00462963</v>
   <v>       0.00462963</v>
   <v>       0.00462963</v>
   <v>       0.00231481</v>
   <v>       0.00462963</v>
   <v>       0.00925926</v>
   <v>       0.00925926</v>
   <v>       0.00925926</v>
   <v>       0.00925926</v>
   <v>       0.00925926</v>
   <v>       0.00462963</v>
   <v>       0.00462963</v>
   <v>       0.00925926</v>
   <v>       0.00925926</v>
   <v>       0.00925926</v>
   <v>       0.00925926</v>
   <v>       0.00925926</v>
   <v>       0.00462963</v>
   <v>       0.00231481</v>
   <v>       0.00462963</v>
   <v>       0.00462963</v>
   <v>       0.00462963</v>
   <v>       0.00462963</v>
   <v>       0.00462963</v>
   <v>       0.00231481</v>
   <v>       0.00231481</v>
   <v>       0.00462963</v>
   <v>       0.00462963</v>
   <v>       0.00462963</v>
   <v>       0.00462963</v>
   <v>       0.00462963</v>
   <v>       0.00231481</v>
   <v>       0.00462963</v>
   <v>       0.00925926</v>
   <v>       0.00925926</v>
   <v>       0.00925926</v>
   <v>       0.00925926</v>
   <v>       0.00925926</v>
   <v>       0.00462963</v>
   <v>       0.00231481</v>
   <v>       0.00462963</v>
   <v>       0.00462963</v>
   <v>       0.00462963</v>
   <v>       0.00462963</v>
   <v>       0.00462963</v>
   <v>       0.00231481</v>
   <v>       0.00231481</v>
   <v>       0.00462963</v>
   <v>       0.00462963</v>
   <v>       0.00462963</v>
   <v>       0.00462963</v>
   <v>       0.00462963</v>
   <v>       0.00231481</v>
   <v>       0.00231481</v>
   <v>       0.00462963</v>
   <v>       0.00462963</v>
   <v>       0.00462963</v>
   <v>       0.00462963</v>
   <v>       0.00462963</v>
   <v>       0.00231481</v>
   <v>       0.00057870</v>
   <v>       0.00115741</v>
   <v>       0.00115741</v>
   <v>       0.00115741</v>
   <v>       0.00115741</v>
   <v>       0.00115741</v>
   <v>       0.00057870</v>
  </varray>
 </kpoints>
 <parameters>
  <separator name="general" >
   <i type="string" name="SYSTEM">unknown system</i>
   <i type="logical" name="LCOMPAT"> F  </i>
  </separator>
  <separator name="electronic" >
   <i type="string" name="PREC">accura</i>
   <i name="ENMAX">    750.00000000</i>
   <i name="ENAUG">    356.67000000</i>
   <i name="EDIFF">      0.00000001</i>
   <i type="int" name="IALGO">    38</i>
   <i type="int" name="IWAVPR">    10</i>
   <i type="int" name="NBANDS">   211</i>
   <i name="NELECT">    352.00000000</i>
   <separator name="electronic smearing" >
    <i type="int" name="ISMEAR">     0</i>
    <i name="SIGMA">      0.01000000</i>
   </separator>
   <separator name="electronic projectors" >
    <i type="logical" name="LREAL"> F  </i>
    <v name="ROPT">      0.00000000</v>
    <i type="int" name="LMAXPAW">  -100</i>
    <i type="int" name="LMAXMIX">     2</i>
   </separator>
   <separator name="electronic startup" >
    <i type="int" name="ISTART">     0</i>
    <i type="int" name="ICHARG">     2</i>
    <i type="int" name="INIWAV">     1</i>
   </separator>
   <separator name="electronic spin" >
    <i type="int" name="ISPIN">     1</i>
    <i type="logical" name="LNONCOLLINEAR"> F  </i>
    <v name="MAGMOM">      1.00000000      1.00000000      1.00000000      1.00000000      1.00000000      1.00000000      1.00000000      1.00000000      1.00000000      1.00000000      1.00000000      1.00000000      1.00000000      1.00000000      1.00000000      1.00000000      1.00000000      1.00000000      1.00000000      1.00000000
      1.00000000      1.00000000      1.00000000      1.00000000      1.00000000      1.00000000      1.00000000      1.00000000      1.00000000      1.00000000      1.00000000      1.00000000</v>
    <i name="NUPDOWN">     -1.00000000</i>
    <i type="logical" name="LSORBIT"> F  </i>
    <v name="SAXIS">      0.00000000      0.00000000      1.00000000</v>
    <i type="logical" name="LSPIRAL"> F  </i>
    <v name="QSPIRAL">      0.00000000      0.00000000      0.00000000</v>
    <i type="logical" name="LZEROZ"> F  </i>
   </separator>
   <separator name="electronic exchange-correlation" >
    <i type="string" name="GGA">--</i>
    <i type="int" name="VOSKOWN">     0</i>
    <i type="logical" name="LASPH"> F  </i>
    <i type="logical" name="LMETAGGA"> F  </i>
    <i type="string" name="GGA2">--</i>
   </separator>
   <separator name="electronic convergence" >
    <i type="int" name="NELM">    60</i>
    <i type="int" name="NELMDL">    -5</i>
    <i type="int" name="NELMIN">     2</i>
    <i name="ENINI">    750.00000000</i>
    <separator name="electronic convergence detail" >
     <i type="logical" name="LDIAG"> T  </i>
     <i name="WEIMIN">      0.00000000</i>
     <i name="EBREAK">      0.00000000</i>
     <i name="DEPER">      0.30000000</i>
     <i type="int" name="NRMM">     4</i>
     <i name="TIME">      0.10000000</i>
    </separator>
   </separator>
   <separator name="electronic mixer" >
    <i name="AMIX">      0.40000000</i>
    <i name="BMIX">      1.00000000</i>
    <i name="AMIN">      0.10000000</i>
    <i name="AMIX_MAG">      1.60000000</i>
    <i name="BMIX_MAG">      1.00000000</i>
    <separator name="electronic mixer details" >
     <i type="int" name="IMIX">     4</i>
     <i type="int" name="MAXMIX">   -45</i>
     <i name="WC">    100.00000000</i>
     <i type="int" name="INIMIX">     1</i>
     <i type="int" name="MIXPRE">     1</i>
     <i type="int" name="MREMOVE">     5</i>
    </separator>
   </separator>
   <separator name="electronic dipolcorrection" >
    <i type="int" name="IDIPOL">     0</i>
    <i type="logical" name="LDIPOL"> F  </i>
    <v name="DIPOL">   -100.00000000</v>
    <i name="EFIELD">      0.00000000</i>
   </separator>
  </separator>
  <separator name="grids" >
   <i type="int" name="NGX">    80</i>
   <i type="int" name="NGY">    80</i>
   <i type="int" name="NGZ">    80</i>
   <i type="int" name="NGXF">   160</i>
   <i type="int" name="NGYF">   160</i>
   <i type="int" name="NGZF">   160</i>
   <i type="logical" name="ADDGRID"> T  </i>
  </separator>
  <separator name="ionic" >
   <i type="int" name="NSW">     0</i>
   <i type="int" name="IBRION">    -1</i>
   <i type="int" name="ISIF">     2</i>
   <i name="PSTRESS">      0.00000000</i>
   <i name="EDIFFG">      0.00000010</i>
   <i type="int" name="NFREE">     0</i>
   <i name="POTIM">      0.50000000</i>
   <i name="SMASS">     -3.00000000</i>
  </separator>
  <separator name="ionic md" >
   <i name="TEBEG">      0.00010000</i>
   <i name="TEEND">      0.00010000</i>
   <i type="int" name="NBLOCK">     1</i>
   <i type="int" name="KBLOCK">     1</i>
   <i type="int" name="NPACO">   256</i>
   <i name="APACO">     16.00000000</i>
  </separator>
  <separator name="symmetry" >
   <i type="int" name="ISYM">     2</i>
   <i name="SYMPREC">      0.00001000</i>
  </separator>
  <separator name="dos" >
   <i type="logical" name="LORBIT"> F  </i>
   <v name="RWIGS">     -1.00000000</v>
   <i type="int" name="NEDOS">   301</i>
   <i name="EMIN">     10.00000000</i>
   <i name="EMAX">    -10.00000000</i>
  </separator>
  <separator name="writing" >
   <i type="int" name="NWRITE">     2</i>
   <i type="logical" name="LWAVE"> F  </i>
   <i type="logical" name="LCHARG"> F  </i>
   <i type="logical" name="LPARD"> F  </i>
   <i type="logical" name="LVTOT"> F  </i>
   <i type="logical" name="LELF"> F  </i>
   <i type="logical" name="LOPTICS"> F  </i>
   <i name="STM">      0.00000000</i>
  </separator>
  <separator name="performance" >
   <i type="int" name="NPAR">     4</i>
   <i type="int" name="NSIM">     4</i>
   <i type="int" name="NBLK">   256</i>
   <i type="logical" name="LPLANE"> T  </i>
   <i type="logical" name="LCRITICAL_MEM"> F  </i>
   <i type="logical" name="LSCALAPACK"> F  </i>
   <i type="logical" name="LSCALU"> F  </i>
   <i type="logical" name="LASYNC"> F  </i>
  </separator>
  <separator name="miscellaneous" >
   <i type="int" name="IDIOT">     3</i>
   <i type="logical" name="LMUSIC"> F  </i>
   <v name="POMASS">    196.96600000</v>
   <i type="logical" name="LCORR"> T  </i>
  </separator>
  <i type="logical" name="LREAL_COMPAT"> F  </i>
  <i type="logical" name="GGA_COMPAT"> T  </i>
  <i type="logical" name="LBERRY"> F  </i>
  <i type="int" name="ICORELEVEL">     0</i>
  <i type="logical" name="LDAU"> F  </i>
  <i type="int" name="I_CONSTRAINED_M">     0</i>
 </parameters>
 <atominfo>
  <atoms>      32</atoms>
  <types>       1</types>
  <array name="atoms" >
   <dimension dim="1">ion</dimension>
   <field type="string">element</field>
   <field type="int">atomtype</field>
   <set>
    <rc><c>Au</c><c>   1</c></rc>
    <rc><c>Au</c><c>   1</c></rc>
    <rc><c>Au</c><c>   1</c></rc>
    <rc><c>Au</c><c>   1</c></rc>
    <rc><c>Au</c><c>   1</c></rc>
    <rc><c>Au</c><c>   1</c></rc>
    <rc><c>Au</c><c>   1</c></rc>
    <rc><c>Au</c><c>   1</c></rc>
    <rc><c>Au</c><c>   1</c></rc>
    <rc><c>Au</c><c>   1</c></rc>
    <rc><c>Au</c><c>   1</c></rc>
    <rc><c>Au</c><c>   1</c></rc>
    <rc><c>Au</c><c>   1</c></rc>
    <rc><c>Au</c><c>   1</c></rc>
    <rc><c>Au</c><c>   1</c></rc>
    <rc><c>Au</c><c>   1</c></rc>
    <rc><c>Au</c><c>   1</c></rc>
    <rc><c>Au</c><c>   1</c></rc>
    <rc><c>Au</c><c>   1</c></rc>
    <rc><c>Au</c><c>   1</c></rc>
    <rc><c>Au</c><c>   1</c></rc>
    <rc><c>Au</c><c>   1</c></rc>
    <rc><c>Au</c><c>   1</c></rc>
    <rc><c>Au</c><c>   1</c></rc>
    <rc><c>Au</c><c>   1</c></rc>
    <rc><c>Au</c><c>   1</c></rc>
    <rc><c>Au</c><c>   1</c></rc>
    <rc><c>Au</c><c>   1</c></rc>
    <rc><c>Au</c><c>   1</c></rc>
    <rc><c>Au</c><c>   1</c></rc>
    <rc><c>Au</c><c>   1</c></rc>
    <rc><c>Au</c><c>   1</c></rc>
   </set>
  </array>
  <array name="atomtypes" >
   <dimension dim="1">type</dimension>
   <field type="int">atomspertype</field>
   <field type="string">element</field>
   <field>mass</field>
   <field>valence</field>
   <field type="string">pseudopotential</field>
   <set>
    <rc><c>  32</c><c>Au</c><c>    196.96600000</c><c>     11.00000000</c><c> PAW_PBE Au 06Sep2000                   </c></rc>
   </set>
  </array>
 </atominfo>
 <structure name="initialpos" >
  <crystal>
   <varray name="basis" >
    <v>       8.51261788      0.00000000      0.00000000</v>
    <v>       0.00000000      8.51261788      0.00000000</v>
    <v>       0.00000000      0.00000000      8.51261788</v>
   </varray>
   <i name="volume">    616.86398753</i>
   <varray name="rec_basis" >
    <v>       0.11747268      0.00000000      0.00000000</v>
    <v>       0.00000000      0.11747268      0.00000000</v>
    <v>       0.00000000      0.00000000      0.11747268</v>
   </varray>
  </crystal>
  <varray name="positions" >
   <v>       0.00117473      0.00000000      0.00000000</v>
   <v>       0.50000000      0.00000000      0.00000000</v>
   <v>       0.00000000      0.50000000      0.00000000</v>
   <v>       0.50000000      0.50000000      0.00000000</v>
   <v>       0.00000000      0.00000000      0.50000000</v>
   <v>       0.50000000      0.00000000      0.50000000</v>
   <v>       0.00000000      0.50000000      0.50000000</v>
   <v>       0.50000000      0.50000000      0.50000000</v>
   <v>       0.25000000      0.25000000      0.00000000</v>
   <v>       0.75000000      0.25000000      0.00000000</v>
   <v>       0.25000000      0.75000000      0.00000000</v>
   <v>       0.75000000      0.75000000      0.00000000</v>
   <v>       0.25000000      0.25000000      0.50000000</v>
   <v>       0.75000000      0.25000000      0.50000000</v>
   <v>       0.25000000      0.75000000      0.50000000</v>
   <v>       0.75000000      0.75000000      0.50000000</v>
   <v>       0.25000000      0.00000000      0.25000000</v>
   <v>       0.75000000      0.00000000      0.25000000</v>
   <v>       0.25000000      0.50000000      0.25000000</v>
   <v>       0.75000000      0.50000000      0.25000000</v>
   <v>       0.25000000      0.00000000      0.75000000</v>
   <v>       0.75000000      0.00000000      0.75000000</v>
   <v>       0.25000000      0.50000000      0.75000000</v>
   <v>       0.75000000      0.50000000      0.75000000</v>
   <v>       0.00000000      0.25000000      0.25000000</v>
   <v>       0.50000000      0.25000000      0.25000000</v>
   <v>       0.00000000      0.75000000      0.25000000</v>
   <v>       0.50000000      0.75000000      0.25000000</v>
   <v>       0.00000000      0.25000000      0.75000000</v>
   <v>       0.50000000      0.25000000      0.75000000</v>
   <v>       0.00000000      0.75000000      0.75000000</v>
   <v>       0.50000000      0.75000000      0.75000000</v>
  </varray>
 </structure>
 <calculation>
  <scstep>
   <time name="dav"> 2647.35 3996.07</time>
   <time name="total"> 2655.97 4017.80</time>
   <energy>
    <i name="alphaZ">   3108.89941439</i>
    <i name="ewald"> -30029.93168501</i>
    <i name="hartreedc">  -4483.57917073</i>
    <i name="XCdc">    478.60137811</i>
    <i name="pawpsdc">  23920.39735419</i>
    <i name="pawaedc"> -23172.13309131</i>
    <i name="eentropy">     -0.00043766</i>
    <i name="bandstr">   5169.65994069</i>
    <i name="atom">  29633.78979189</i>
    <i name="e_fr_energy">   4625.70349456</i>
    <i name="e_wo_entrp">   4625.70393222</i>
    <i name="e_0_energy">   4625.70371339</i>
   </energy>
  </scstep>
  <scstep>
   <time name="dav"> 2491.69 3902.63</time>
   <time name="total"> 2491.92 3902.89</time>
   <energy>
    <i name="e_fr_energy">    171.79707232</i>
    <i name="e_wo_entrp">    171.79741860</i>
    <i name="e_0_energy">    171.79724546</i>
   </energy>
  </scstep>
  <scstep>
   <time name="dav"> 4090.80 7798.23</time>
   <time name="total"> 4091.02 7798.49</time>
   <energy>
    <i name="e_fr_energy">   -100.94864049</i>
    <i name="e_wo_entrp">   -100.94778418</i>
    <i name="e_0_energy">   -100.94821233</i>
   </energy>
  </scstep>
  <scstep>
   <time name="dav"> 5170.68 5724.69</time>
   <time name="total"> 5170.92 5725.02</time>
   <energy>
    <i name="e_fr_energy">   -111.29728214</i>
    <i name="e_wo_entrp">   -111.29608533</i>
    <i name="e_0_energy">   -111.29668373</i>
   </energy>
  </scstep>
  <scstep>
   <time name="dav"> 2742.29 3185.32</time>
   <time name="total"> 3099.91 4970.90</time>
   <energy>
    <i name="e_fr_energy">   -111.50986153</i>
    <i name="e_wo_entrp">   -111.50866881</i>
    <i name="e_0_energy">   -111.50926517</i>
   </energy>
  </scstep>
  <scstep>
   <time name="dav"> 6404.50 9005.71</time>
   <time name="total"> 6529.8612658.45</time>
   <energy>
    <i name="e_fr_energy">   -104.30566914</i>
    <i name="e_wo_entrp">   -104.30458890</i>
    <i name="e_0_energy">   -104.30512902</i>
   </energy>
  </scstep>
  <scstep>
   <time name="dav"> 2913.15 3948.97</time>
   <time name="total"> 3066.55 4168.85</time>
   <energy>
    <i name="e_fr_energy">   -103.95872331</i>
    <i name="e_wo_entrp">   -103.95765282</i>
    <i name="e_0_energy">   -103.95818807</i>
   </energy>
  </scstep>
  <scstep>
   <time name="dav"> 2886.65 2902.47</time>
   <time name="total"> 3034.71 3063.80</time>
   <energy>
    <i name="e_fr_energy">   -103.88983146</i>
    <i name="e_wo_entrp">   -103.88876071</i>
    <i name="e_0_energy">   -103.88929609</i>
   </energy>
  </scstep>
  <scstep>
   <time name="dav"> 3088.77 3525.04</time>
   <time name="total"> 4466.48 5384.62</time>
   <energy>
    <i name="e_fr_energy">   -103.88996105</i>
    <i name="e_wo_entrp">   -103.88891188</i>
    <i name="e_0_energy">   -103.88943646</i>
   </energy>
  </scstep>
  <scstep>
   <time name="dav"> 8549.4318276.19</time>
   <time name="total"> 8892.8222901.27</time>
   <energy>
    <i name="e_fr_energy">   -103.88994398</i>
    <i name="e_wo_entrp">   -103.88888907</i>
    <i name="e_0_energy">   -103.88941652</i>
   </energy>
  </scstep>
  <scstep>
   <time name="dav"> 4255.02 7378.24</time>
   <time name="total"> 4366.03 7676.43</time>
   <energy>
    <i name="e_fr_energy">   -103.88995092</i>
    <i name="e_wo_entrp">   -103.88889488</i>
    <i name="e_0_energy">   -103.88942290</i>
   </energy>
  </scstep>
  <scstep>
   <time name="dav">10411.0813490.66</time>
   <time name="total">10613.4517486.29</time>
   <energy>
    <i name="e_fr_energy">   -103.88995415</i>
    <i name="e_wo_entrp">   -103.88889798</i>
    <i name="e_0_energy">   -103.88942607</i>
   </energy>
  </scstep>
  <scstep>
   <time name="dav">16078.7144237.88</time>
   <time name="total">17004.3360035.48</time>
   <energy>
    <i name="e_fr_energy">   -103.88995311</i>
    <i name="e_wo_entrp">   -103.88889688</i>
    <i name="e_0_energy">   -103.88942500</i>
   </energy>
  </scstep>
  <scstep>
   <time name="dav"> 2489.41 3410.81</time>
   <time name="total"> 2657.49 3704.17</time>
   <energy>
    <i name="e_fr_energy">   -103.88995248</i>
    <i name="e_wo_entrp">   -103.88889623</i>
    <i name="e_0_energy">   -103.88942436</i>
   </energy>
  </scstep>
  <scstep>
   <time name="dav"> 2049.92 2049.42</time>
   <time name="total"> 2182.72 2183.29</time>
   <energy>
    <i name="e_fr_energy">   -103.88995245</i>
    <i name="e_wo_entrp">   -103.88889621</i>
    <i name="e_0_energy">   -103.88942433</i>
   </energy>
  </scstep>
  <scstep>
   <time name="dav"> 1978.30 1977.70</time>
   <time name="total"> 2098.72 2098.11</time>
   <energy>
    <i name="e_fr_energy">   -103.88995247</i>
    <i name="e_wo_entrp">   -103.88889623</i>
    <i name="e_0_energy">   -103.88942435</i>
   </energy>
  </scstep>
  <scstep>
   <time name="dav"> 2015.08 2014.87</time>
   <time name="total"> 2017.69 2017.50</time>
   <energy>
    <i name="alphaZ">   3108.89941439</i>
    <i name="ewald"> -30029.93168501</i>
    <i name="hartreedc">  -4143.69821762</i>
    <i name="XCdc">    463.19926114</i>
    <i name="pawpsdc">  23734.84059110</i>
    <i name="pawaedc"> -23054.20222291</i>
    <i name="eentropy">     -0.00105624</i>
    <i name="bandstr">    183.21417082</i>
    <i name="atom">  29633.78979189</i>
    <i name="e_fr_energy">   -103.88995247</i>
    <i name="e_wo_entrp">   -103.88889623</i>
    <i name="e_0_energy">   -103.88942435</i>
   </energy>
  </scstep>
  <structure>
   <crystal>
    <varray name="basis" >
     <v>       8.51261788      0.00000000      0.00000000</v>
     <v>       0.00000000      8.51261788      0.00000000</v>
     <v>       0.00000000      0.00000000      8.51261788</v>
    </varray>
    <i name="volume">    616.86398753</i>
    <varray name="rec_basis" >
     <v>       0.11747268      0.00000000      0.00000000</v>
     <v>       0.00000000      0.11747268      0.00000000</v>
     <v>       0.00000000      0.00000000      0.11747268</v>
    </varray>
   </crystal>
   <varray name="positions" >
    <v>       0.00117473      0.00000000      0.00000000</v>
    <v>       0.50000000      0.00000000      0.00000000</v>
    <v>       0.00000000      0.50000000      0.00000000</v>
    <v>       0.50000000      0.50000000      0.00000000</v>
    <v>       0.00000000      0.00000000      0.50000000</v>
    <v>       0.50000000      0.00000000      0.50000000</v>
    <v>       0.00000000      0.50000000      0.50000000</v>
    <v>       0.50000000      0.50000000      0.50000000</v>
    <v>       0.25000000      0.25000000      0.00000000</v>
    <v>       0.75000000      0.25000000      0.00000000</v>
    <v>       0.25000000      0.75000000      0.00000000</v>
    <v>       0.75000000      0.75000000      0.00000000</v>
    <v>       0.25000000      0.25000000      0.50000000</v>
    <v>       0.75000000      0.25000000      0.50000000</v>
    <v>       0.25000000      0.75000000      0.50000000</v>
    <v>       0.75000000      0.75000000      0.50000000</v>
    <v>       0.25000000      0.00000000      0.25000000</v>
    <v>       0.75000000      0.00000000      0.25000000</v>
    <v>       0.25000000      0.50000000      0.25000000</v>
    <v>       0.75000000      0.50000000      0.25000000</v>
    <v>       0.25000000      0.00000000      0.75000000</v>
    <v>       0.75000000      0.00000000      0.75000000</v>
    <v>       0.25000000      0.50000000      0.75000000</v>
    <v>       0.75000000      0.50000000      0.75000000</v>
    <v>       0.00000000      0.25000000      0.25000000</v>
    <v>       0.50000000      0.25000000      0.25000000</v>
    <v>       0.00000000      0.75000000      0.25000000</v>
    <v>       0.50000000      0.75000000      0.25000000</v>
    <v>       0.00000000      0.25000000      0.75000000</v>
    <v>       0.50000000      0.25000000      0.75000000</v>
    <v>       0.00000000      0.75000000      0.75000000</v>
    <v>       0.50000000      0.75000000      0.75000000</v>
   </varray>
  </structure>
  <varray name="forces" >
   <v>      -0.03325729      0.00000000      0.00000000</v>
   <v>       0.00396728      0.00000000     -0.00000000</v>
   <v>      -0.00063987     -0.00000000      0.00000000</v>
   <v>      -0.00210457      0.00000000      0.00000000</v>
   <v>      -0.00063987      0.00000000     -0.00000000</v>
   <v>      -0.00210457      0.00000000     -0.00000000</v>
   <v>       0.00010708     -0.00000000     -0.00000000</v>
   <v>      -0.00001323      0.00000000     -0.00000000</v>
   <v>       0.00510157      0.00651987     -0.00000000</v>
   <v>       0.00489967     -0.00624057      0.00000000</v>
   <v>       0.00510157     -0.00651987     -0.00000000</v>
   <v>       0.00489967      0.00624057      0.00000000</v>
   <v>       0.00025125     -0.00003512      0.00000000</v>
   <v>       0.00025105      0.00003756     -0.00000000</v>
   <v>       0.00025125      0.00003512      0.00000000</v>
   <v>       0.00025105     -0.00003756     -0.00000000</v>
   <v>       0.00510157     -0.00000000      0.00651987</v>
   <v>       0.00489967     -0.00000000     -0.00624057</v>
   <v>       0.00025125     -0.00000000     -0.00003512</v>
   <v>       0.00025105     -0.00000000      0.00003756</v>
   <v>       0.00510157      0.00000000     -0.00651987</v>
   <v>       0.00489967     -0.00000000      0.00624057</v>
   <v>       0.00025125      0.00000000      0.00003512</v>
   <v>       0.00025105      0.00000000     -0.00003756</v>
   <v>      -0.00262567     -0.00000096     -0.00000096</v>
   <v>       0.00079339      0.00000352      0.00000352</v>
   <v>      -0.00262567      0.00000096     -0.00000096</v>
   <v>       0.00079339     -0.00000352      0.00000352</v>
   <v>      -0.00262567     -0.00000096      0.00000096</v>
   <v>       0.00079339      0.00000352     -0.00000352</v>
   <v>      -0.00262567      0.00000096      0.00000096</v>
   <v>       0.00079339     -0.00000352     -0.00000352</v>
  </varray>
  <varray name="stress" >
   <v>     -67.31975378     -0.00000000     -0.00000000</v>
   <v>       0.00000000    -67.32074361      0.00000000</v>
   <v>       0.00000000      0.00000000    -67.32074361</v>
  </varray>
  <energy>
   <i name="e_fr_energy">   -103.88995247</i>
   <i name="e_wo_entrp">   -103.88942435</i>
   <i name="e_0_energy">     -0.00105624</i>
  </energy>
  <eigenvalues>
   <array>
    <dimension dim="1">band</dimension>
    <dimension dim="2">kpoint</dimension>
    <dimension dim="3">spin</dimension>
    <field>eigene</field>
    <field>occ</field>
    <set>
     <set comment="spin 1">
      <set comment="kpoint 1">
       <r>  -4.3560  1.0000</r>
       <r>  -2.1625  1.0000</r>
       <r>  -2.1593  1.0000</r>
       <r>  -2.1593  1.0000</r>
       <r>  -2.1593  1.0000</r>
       <r>  -2.1593  1.0000</r>
       <r>  -2.1562  1.0000</r>
       <r>  -2.0350  1.0000</r>
       <r>  -2.0350  1.0000</r>
       <r>  -2.0350  1.0000</r>
       <r>  -2.0350  1.0000</r>
       <r>  -1.7846  1.0000</r>
       <r>  -1.7846  1.0000</r>
       <r>  -1.7846  1.0000</r>
       <r>  -1.5385  1.0000</r>
       <r>  -1.5385  1.0000</r>
       <r>  -1.5385  1.0000</r>
       <r>  -0.9900  1.0000</r>
       <r>  -0.9886  1.0000</r>
       <r>  -0.9886  1.0000</r>
       <r>  -0.9870  1.0000</r>
       <r>  -0.9868  1.0000</r>
       <r>  -0.9868  1.0000</r>
       <r>  -0.9868  1.0000</r>
       <r>  -0.9868  1.0000</r>
       <r>  -0.9866  1.0000</r>
       <r>  -0.9849  1.0000</r>
       <r>  -0.9849  1.0000</r>
       <r>  -0.9835  1.0000</r>
       <r>  -0.8561  1.0000</r>
       <r>  -0.8541  1.0000</r>
       <r>  -0.8541  1.0000</r>
       <r>  -0.8541  1.0000</r>
       <r>  -0.8541  1.0000</r>
       <r>  -0.8522  1.0000</r>
       <r>  -0.7669  1.0000</r>
       <r>  -0.7650  1.0000</r>
       <r>  -0.7650  1.0000</r>
       <r>  -0.7650  1.0000</r>
       <r>  -0.7650  1.0000</r>
       <r>  -0.7630  1.0000</r>
       <r>  -0.2721  1.0000</r>
       <r>  -0.2697  1.0000</r>
       <r>  -0.2697  1.0000</r>
       <r>  -0.2685  1.0000</r>
       <r>  -0.2685  1.0000</r>
       <r>  -0.2685  1.0000</r>
       <r>  -0.2685  1.0000</r>
       <r>  -0.2685  1.0000</r>
       <r>  -0.2684  1.0000</r>
       <r>  -0.2674  1.0000</r>
       <r>  -0.2674  1.0000</r>
       <r>  -0.2651  1.0000</r>
       <r>  -0.2107  1.0000</r>
       <r>  -0.2107  1.0000</r>
       <r>  -0.2085  1.0000</r>
       <r>  -0.2085  1.0000</r>
       <r>  -0.2085  1.0000</r>
       <r>  -0.2085  1.0000</r>
       <r>  -0.2085  1.0000</r>
       <r>  -0.2084  1.0000</r>
       <r>  -0.2084  1.0000</r>
       <r>  -0.2083  1.0000</r>
       <r>  -0.2062  1.0000</r>
       <r>  -0.2062  1.0000</r>
       <r>   0.0335  1.0000</r>
       <r>   0.0368  1.0000</r>
       <r>   0.0369  1.0000</r>
       <r>   0.0369  1.0000</r>
       <r>   0.0372  1.0000</r>
       <r>   0.0372  1.0000</r>
       <r>   0.0372  1.0000</r>
       <r>   0.0372  1.0000</r>
       <r>   0.0374  1.0000</r>
       <r>   0.0374  1.0000</r>
       <r>   0.0375  1.0000</r>
       <r>   0.0408  1.0000</r>
       <r>   0.1113  1.0000</r>
       <r>   0.1113  1.0000</r>
       <r>   0.1113  1.0000</r>
       <r>   0.1113  1.0000</r>
       <r>   0.1113  1.0000</r>
       <r>   0.1113  1.0000</r>
       <r>   0.1113  1.0000</r>
       <r>   0.1114  1.0000</r>
       <r>   0.1341  1.0000</r>
       <r>   0.1341  1.0000</r>
       <r>   0.1342  1.0000</r>
       <r>   0.7446  1.0000</r>
       <r>   0.7466  1.0000</r>
       <r>   0.7466  1.0000</r>
       <r>   0.7466  1.0000</r>
       <r>   0.7466  1.0000</r>
       <r>   0.7486  1.0000</r>
       <r>   0.8930  1.0000</r>
       <r>   0.8938  1.0000</r>
       <r>   0.8949  1.0000</r>
       <r>   0.8949  1.0000</r>
       <r>   0.8954  1.0000</r>
       <r>   0.8954  1.0000</r>
       <r>   0.8954  1.0000</r>
       <r>   0.8954  1.0000</r>
       <r>   0.8960  1.0000</r>
       <r>   0.8960  1.0000</r>
       <r>   0.8971  1.0000</r>
       <r>   0.8977  1.0000</r>
       <r>   1.1421  1.0000</r>
       <r>   1.1421  1.0000</r>
       <r>   1.1445  1.0000</r>
       <r>   1.1445  1.0000</r>
       <r>   1.1447  1.0000</r>
       <r>   1.1447  1.0000</r>
       <r>   1.1447  1.0000</r>
       <r>   1.1448  1.0000</r>
       <r>   1.1449  1.0000</r>
       <r>   1.1449  1.0000</r>
       <r>   1.1472  1.0000</r>
       <r>   1.1472  1.0000</r>
       <r>   1.2693  1.0000</r>
       <r>   1.2709  1.0000</r>
       <r>   1.2709  1.0000</r>
       <r>   1.2709  1.0000</r>
       <r>   1.2709  1.0000</r>
       <r>   1.2726  1.0000</r>
       <r>   1.3535  1.0000</r>
       <r>   1.3539  1.0000</r>
       <r>   1.3591  1.0000</r>
       <r>   1.3591  1.0000</r>
       <r>   1.3614  1.0000</r>
       <r>   1.3618  1.0000</r>
       <r>   1.3618  1.0000</r>
       <r>   1.3618  1.0000</r>
       <r>   1.3618  1.0000</r>
       <r>   1.3619  1.0000</r>
       <r>   1.3622  1.0000</r>
       <r>   1.3623  1.0000</r>
       <r>   1.3647  1.0000</r>
       <r>   1.3647  1.0000</r>
       <r>   1.7997  1.0000</r>
       <r>   1.8009  1.0000</r>
       <r>   1.8009  1.0000</r>
       <r>   1.8009  1.0000</r>
       <r>   1.8009  1.0000</r>
       <r>   1.8021  1.0000</r>
       <r>   2.2814  1.0000</r>
       <r>   2.2814  1.0000</r>
       <r>   2.2814  1.0000</r>
       <r>   2.3197  1.0000</r>
       <r>   2.3197  1.0000</r>
       <r>   2.3197  1.0000</r>
       <r>   2.3197  1.0000</r>
       <r>   2.3197  1.0000</r>
       <r>   2.3197  1.0000</r>
       <r>   2.3197  1.0000</r>
       <r>   2.3197  1.0000</r>
       <r>   2.5759  1.0000</r>
       <r>   2.5762  1.0000</r>
       <r>   2.5762  1.0000</r>
       <r>   2.5762  1.0000</r>
       <r>   2.5762  1.0000</r>
       <r>   2.5762  1.0000</r>
       <r>   2.5776  1.0000</r>
       <r>   2.5776  1.0000</r>
       <r>   2.5776  1.0000</r>
       <r>   2.5776  1.0000</r>
       <r>   2.5777  1.0000</r>
       <r>   2.5779  1.0000</r>
       <r>   3.8444  1.0000</r>
       <r>   3.8450  1.0000</r>
       <r>   3.8450  1.0000</r>
       <r>   3.8451  1.0000</r>
       <r>   3.8516  1.0000</r>
       <r>   3.8521  1.0000</r>
       <r>   3.8521  1.0000</r>
       <r>   3.8526  1.0000</r>
       <r>   3.8530  1.0000</r>
       <r>   3.8530  1.0000</r>
       <r>   3.8530  1.0000</r>
       <r>   3.8532  1.0000</r>
       <r>   3.8535  1.0000</r>
       <r>   3.8543  1.0000</r>
       <r>   3.8543  1.0000</r>
       <r>   3.8553  1.0000</r>
       <r>   5.6237  0.0000</r>
       <r>   5.6237  0.0000</r>
       <r>   5.6237  0.0000</r>
       <r>   6.7422  0.0000</r>
       <r>   6.7422  0.0000</r>
       <r>   6.7422  0.0000</r>
       <r>   6.7422  0.0000</r>
       <r>   8.4305  0.0000</r>
       <r>   8.4306  0.0000</r>
       <r>   8.4307  0.0000</r>
       <r>   8.4307  0.0000</r>
       <r>   8.4307  0.0000</r>
       <r>   8.4309  0.0000</r>
       <r>   9.1516  0.0000</r>
       <r>   9.1517  0.0000</r>
       <r>   9.1517  0.0000</r>
       <r>  10.1944  0.0000</r>
       <r>  10.1944  0.0000</r>
       <r>  10.1974  0.0000</r>
       <r>  10.1974  0.0000</r>
       <r>  10.1979  0.0000</r>
       <r>  10.1979  0.0000</r>
       <r>  10.1979  0.0000</r>
       <r>  10.1979  0.0000</r>
       <r>  10.1983  0.0000</r>
       <r>  10.1983  0.0000</r>
       <r>  10.2013  0.0000</r>
       <r>  10.2013  0.0000</r>
       <r>  12.1972  0.0000</r>
      </set>
      <set comment="kpoint 2">
       <r>  -4.3378  1.0000</r>
       <r>  -2.4218  1.0000</r>
       <r>  -2.1462  1.0000</r>
       <r>  -2.1461  1.0000</r>
       <r>  -2.1461  1.0000</r>
       <r>  -2.1461  1.0000</r>
       <r>  -2.0252  1.0000</r>
       <r>  -2.0252  1.0000</r>
       <r>  -2.0252  1.0000</r>
       <r>  -2.0252  1.0000</r>
       <r>  -1.9347  1.0000</r>
       <r>  -1.7788  1.0000</r>
       <r>  -1.7730  1.0000</r>
       <r>  -1.7730  1.0000</r>
       <r>  -1.5323  1.0000</r>
       <r>  -1.5292  1.0000</r>
       <r>  -1.5292  1.0000</r>
       <r>  -1.0814  1.0000</r>
       <r>  -1.0814  1.0000</r>
       <r>  -1.0814  1.0000</r>
       <r>  -1.0813  1.0000</r>
       <r>  -1.0374  1.0000</r>
       <r>  -1.0373  1.0000</r>
       <r>  -1.0373  1.0000</r>
       <r>  -1.0373  1.0000</r>
       <r>  -0.9056  1.0000</r>
       <r>  -0.9056  1.0000</r>
       <r>  -0.9056  1.0000</r>
       <r>  -0.9056  1.0000</r>
       <r>  -0.8781  1.0000</r>
       <r>  -0.8780  1.0000</r>
       <r>  -0.8721  1.0000</r>
       <r>  -0.8460  1.0000</r>
       <r>  -0.8460  1.0000</r>
       <r>  -0.8460  1.0000</r>
       <r>  -0.8459  1.0000</r>
       <r>  -0.7597  1.0000</r>
       <r>  -0.7597  1.0000</r>
       <r>  -0.7597  1.0000</r>
       <r>  -0.7596  1.0000</r>
       <r>  -0.6557  1.0000</r>
       <r>  -0.4174  1.0000</r>
       <r>  -0.4174  1.0000</r>
       <r>  -0.3110  1.0000</r>
       <r>  -0.3109  1.0000</r>
       <r>  -0.3109  1.0000</r>
       <r>  -0.3108  1.0000</r>
       <r>  -0.2358  1.0000</r>
       <r>  -0.2352  1.0000</r>
       <r>  -0.2352  1.0000</r>
       <r>  -0.2352  1.0000</r>
       <r>  -0.2285  1.0000</r>
       <r>  -0.2285  1.0000</r>
       <r>  -0.2285  1.0000</r>
       <r>  -0.2281  1.0000</r>
       <r>  -0.2181  1.0000</r>
       <r>  -0.2180  1.0000</r>
       <r>  -0.2180  1.0000</r>
       <r>  -0.2180  1.0000</r>
       <r>  -0.2075  1.0000</r>
       <r>  -0.2075  1.0000</r>
       <r>  -0.2075  1.0000</r>
       <r>  -0.2072  1.0000</r>
       <r>  -0.0149  1.0000</r>
       <r>  -0.0149  1.0000</r>
       <r>  -0.0149  1.0000</r>
       <r>  -0.0149  1.0000</r>
       <r>   0.0165  1.0000</r>
       <r>   0.0165  1.0000</r>
       <r>   0.0595  1.0000</r>
       <r>   0.0602  1.0000</r>
       <r>   0.0602  1.0000</r>
       <r>   0.0602  1.0000</r>
       <r>   0.0670  1.0000</r>
       <r>   0.0670  1.0000</r>
       <r>   0.0670  1.0000</r>
       <r>   0.0678  1.0000</r>
       <r>   0.1076  1.0000</r>
       <r>   0.1076  1.0000</r>
       <r>   0.1076  1.0000</r>
       <r>   0.1077  1.0000</r>
       <r>   0.1190  1.0000</r>
       <r>   0.1190  1.0000</r>
       <r>   0.1190  1.0000</r>
       <r>   0.1190  1.0000</r>
       <r>   0.1258  1.0000</r>
       <r>   0.1417  1.0000</r>
       <r>   0.1417  1.0000</r>
       <r>   0.6984  1.0000</r>
       <r>   0.6985  1.0000</r>
       <r>   0.6985  1.0000</r>
       <r>   0.6985  1.0000</r>
       <r>   0.7259  1.0000</r>
       <r>   0.8403  1.0000</r>
       <r>   0.8583  1.0000</r>
       <r>   0.8584  1.0000</r>
       <r>   0.8584  1.0000</r>
       <r>   0.8584  1.0000</r>
       <r>   0.8956  1.0000</r>
       <r>   0.8956  1.0000</r>
       <r>   0.8956  1.0000</r>
       <r>   0.8957  1.0000</r>
       <r>   0.9390  1.0000</r>
       <r>   0.9390  1.0000</r>
       <r>   0.9391  1.0000</r>
       <r>   0.9391  1.0000</r>
       <r>   0.9956  1.0000</r>
       <r>   0.9956  1.0000</r>
       <r>   1.1442  1.0000</r>
       <r>   1.1442  1.0000</r>
       <r>   1.1442  1.0000</r>
       <r>   1.1443  1.0000</r>
       <r>   1.1856  1.0000</r>
       <r>   1.1856  1.0000</r>
       <r>   1.1856  1.0000</r>
       <r>   1.1856  1.0000</r>
       <r>   1.2746  1.0000</r>
       <r>   1.2746  1.0000</r>
       <r>   1.2746  1.0000</r>
       <r>   1.2747  1.0000</r>
       <r>   1.2899  1.0000</r>
       <r>   1.2899  1.0000</r>
       <r>   1.2901  1.0000</r>
       <r>   1.2901  1.0000</r>
       <r>   1.2968  1.0000</r>
       <r>   1.2969  1.0000</r>
       <r>   1.3007  1.0000</r>
       <r>   1.3007  1.0000</r>
       <r>   1.3450  1.0000</r>
       <r>   1.3575  1.0000</r>
       <r>   1.4018  1.0000</r>
       <r>   1.4018  1.0000</r>
       <r>   1.4018  1.0000</r>
       <r>   1.4019  1.0000</r>
       <r>   1.4511  1.0000</r>
       <r>   1.4511  1.0000</r>
       <r>   1.4512  1.0000</r>
       <r>   1.4512  1.0000</r>
       <r>   1.7408  1.0000</r>
       <r>   1.8122  1.0000</r>
       <r>   1.8122  1.0000</r>
       <r>   1.8122  1.0000</r>
       <r>   1.8122  1.0000</r>
       <r>   1.8616  1.0000</r>
       <r>   2.2686  1.0000</r>
       <r>   2.2687  1.0000</r>
       <r>   2.2687  1.0000</r>
       <r>   2.2687  1.0000</r>
       <r>   2.2690  1.0000</r>
       <r>   2.2690  1.0000</r>
       <r>   2.2771  1.0000</r>
       <r>   2.3090  1.0000</r>
       <r>   2.3090  1.0000</r>
       <r>   2.3090  1.0000</r>
       <r>   2.3090  1.0000</r>
       <r>   2.5217  1.0000</r>
       <r>   2.5217  1.0000</r>
       <r>   2.5608  1.0000</r>
       <r>   2.5608  1.0000</r>
       <r>   2.5608  1.0000</r>
       <r>   2.5608  1.0000</r>
       <r>   2.5608  1.0000</r>
       <r>   2.5608  1.0000</r>
       <r>   2.5760  1.0000</r>
       <r>   2.5762  1.0000</r>
       <r>   2.5776  1.0000</r>
       <r>   2.5778  1.0000</r>
       <r>   3.5841  1.0000</r>
       <r>   3.5841  1.0000</r>
       <r>   3.5841  1.0000</r>
       <r>   3.5841  1.0000</r>
       <r>   3.8479  1.0000</r>
       <r>   3.8484  1.0000</r>
       <r>   3.8488  1.0000</r>
       <r>   3.8488  1.0000</r>
       <r>   3.8537  1.0000</r>
       <r>   3.8537  1.0000</r>
       <r>   3.8540  1.0000</r>
       <r>   3.8545  1.0000</r>
       <r>   4.1437  1.0000</r>
       <r>   4.1437  1.0000</r>
       <r>   4.1437  1.0000</r>
       <r>   4.1437  1.0000</r>
       <r>   5.4479  0.0000</r>
       <r>   5.6918  0.0000</r>
       <r>   5.6918  0.0000</r>
       <r>   6.8143  0.0000</r>
       <r>   6.8143  0.0000</r>
       <r>   6.8143  0.0000</r>
       <r>   6.8143  0.0000</r>
       <r>   8.2998  0.0000</r>
       <r>   8.2998  0.0000</r>
       <r>   8.2998  0.0000</r>
       <r>   8.2998  0.0000</r>
       <r>   8.4418  0.0000</r>
       <r>   8.4418  0.0000</r>
       <r>   9.1384  0.0000</r>
       <r>   9.1384  0.0000</r>
       <r>   9.3596  0.0000</r>
       <r>   9.7119  0.0000</r>
       <r>   9.7119  0.0000</r>
       <r>  10.2305  0.0000</r>
       <r>  10.2305  0.0000</r>
       <r>  10.2305  0.0000</r>
       <r>  10.2305  0.0000</r>
       <r>  10.2428  0.0000</r>
       <r>  10.2428  0.0000</r>
       <r>  10.2428  0.0000</r>
       <r>  10.2428  0.0000</r>
       <r>  10.6787  0.0000</r>
       <r>  10.6787  0.0000</r>
       <r>  11.8877  0.0000</r>
      </set>
      <set comment="kpoint 3">
       <r>  -4.2832  1.0000</r>
       <r>  -2.7012  1.0000</r>
       <r>  -2.1071  1.0000</r>
       <r>  -2.1070  1.0000</r>
       <r>  -2.1070  1.0000</r>
       <r>  -2.1070  1.0000</r>
       <r>  -1.9958  1.0000</r>
       <r>  -1.9958  1.0000</r>
       <r>  -1.9958  1.0000</r>
       <r>  -1.9958  1.0000</r>
       <r>  -1.7668  1.0000</r>
       <r>  -1.7617  1.0000</r>
       <r>  -1.7384  1.0000</r>
       <r>  -1.7384  1.0000</r>
       <r>  -1.5138  1.0000</r>
       <r>  -1.5010  1.0000</r>
       <r>  -1.5010  1.0000</r>
       <r>  -1.1918  1.0000</r>
       <r>  -1.1918  1.0000</r>
       <r>  -1.1918  1.0000</r>
       <r>  -1.1917  1.0000</r>
       <r>  -1.1556  1.0000</r>
       <r>  -1.1556  1.0000</r>
       <r>  -1.1556  1.0000</r>
       <r>  -1.1556  1.0000</r>
       <r>  -0.9755  1.0000</r>
       <r>  -0.9450  1.0000</r>
       <r>  -0.9449  1.0000</r>
       <r>  -0.8342  1.0000</r>
       <r>  -0.8341  1.0000</r>
       <r>  -0.8341  1.0000</r>
       <r>  -0.8341  1.0000</r>
       <r>  -0.8221  1.0000</r>
       <r>  -0.8221  1.0000</r>
       <r>  -0.8221  1.0000</r>
       <r>  -0.8221  1.0000</r>
       <r>  -0.7439  1.0000</r>
       <r>  -0.7439  1.0000</r>
       <r>  -0.7439  1.0000</r>
       <r>  -0.7438  1.0000</r>
       <r>  -0.6096  1.0000</r>
       <r>  -0.6096  1.0000</r>
       <r>  -0.5462  1.0000</r>
       <r>  -0.3610  1.0000</r>
       <r>  -0.3610  1.0000</r>
       <r>  -0.3610  1.0000</r>
       <r>  -0.3609  1.0000</r>
       <r>  -0.2453  1.0000</r>
       <r>  -0.2453  1.0000</r>
       <r>  -0.2453  1.0000</r>
       <r>  -0.2453  1.0000</r>
       <r>  -0.2119  1.0000</r>
       <r>  -0.2112  1.0000</r>
       <r>  -0.2112  1.0000</r>
       <r>  -0.2112  1.0000</r>
       <r>  -0.2048  1.0000</r>
       <r>  -0.2048  1.0000</r>
       <r>  -0.2048  1.0000</r>
       <r>  -0.2042  1.0000</r>
       <r>  -0.1575  1.0000</r>
       <r>  -0.1575  1.0000</r>
       <r>  -0.1575  1.0000</r>
       <r>  -0.1574  1.0000</r>
       <r>  -0.0918  1.0000</r>
       <r>  -0.0918  1.0000</r>
       <r>  -0.0918  1.0000</r>
       <r>  -0.0918  1.0000</r>
       <r>   0.0650  1.0000</r>
       <r>   0.0651  1.0000</r>
       <r>   0.0651  1.0000</r>
       <r>   0.0651  1.0000</r>
       <r>   0.0965  1.0000</r>
       <r>   0.0965  1.0000</r>
       <r>   0.0966  1.0000</r>
       <r>   0.0966  1.0000</r>
       <r>   0.1009  1.0000</r>
       <r>   0.1420  1.0000</r>
       <r>   0.1420  1.0000</r>
       <r>   0.1420  1.0000</r>
       <r>   0.1421  1.0000</r>
       <r>   0.1643  1.0000</r>
       <r>   0.1643  1.0000</r>
       <r>   0.1718  1.0000</r>
       <r>   0.1718  1.0000</r>
       <r>   0.1718  1.0000</r>
       <r>   0.1718  1.0000</r>
       <r>   0.2568  1.0000</r>
       <r>   0.2568  1.0000</r>
       <r>   0.5950  1.0000</r>
       <r>   0.5950  1.0000</r>
       <r>   0.5950  1.0000</r>
       <r>   0.5950  1.0000</r>
       <r>   0.7556  1.0000</r>
       <r>   0.7726  1.0000</r>
       <r>   0.7726  1.0000</r>
       <r>   0.7726  1.0000</r>
       <r>   0.7726  1.0000</r>
       <r>   0.8549  1.0000</r>
       <r>   0.8549  1.0000</r>
       <r>   0.9370  1.0000</r>
       <r>   0.9370  1.0000</r>
       <r>   0.9371  1.0000</r>
       <r>   0.9371  1.0000</r>
       <r>   1.0126  1.0000</r>
       <r>   1.0126  1.0000</r>
       <r>   1.0126  1.0000</r>
       <r>   1.0126  1.0000</r>
       <r>   1.0276  1.0000</r>
       <r>   1.1429  1.0000</r>
       <r>   1.1429  1.0000</r>
       <r>   1.1429  1.0000</r>
       <r>   1.1429  1.0000</r>
       <r>   1.2352  1.0000</r>
       <r>   1.2352  1.0000</r>
       <r>   1.2353  1.0000</r>
       <r>   1.2353  1.0000</r>
       <r>   1.2603  1.0000</r>
       <r>   1.2604  1.0000</r>
       <r>   1.2604  1.0000</r>
       <r>   1.2604  1.0000</r>
       <r>   1.2845  1.0000</r>
       <r>   1.2846  1.0000</r>
       <r>   1.2846  1.0000</r>
       <r>   1.2846  1.0000</r>
       <r>   1.3188  1.0000</r>
       <r>   1.3678  1.0000</r>
       <r>   1.3692  1.0000</r>
       <r>   1.3700  1.0000</r>
       <r>   1.4606  1.0000</r>
       <r>   1.4606  1.0000</r>
       <r>   1.4960  1.0000</r>
       <r>   1.4961  1.0000</r>
       <r>   1.4961  1.0000</r>
       <r>   1.4961  1.0000</r>
       <r>   1.5568  1.0000</r>
       <r>   1.5568  1.0000</r>
       <r>   1.5568  1.0000</r>
       <r>   1.5568  1.0000</r>
       <r>   1.6822  1.0000</r>
       <r>   1.8532  1.0000</r>
       <r>   1.8532  1.0000</r>
       <r>   1.8532  1.0000</r>
       <r>   1.8532  1.0000</r>
       <r>   1.9218  1.0000</r>
       <r>   2.1264  1.0000</r>
       <r>   2.1264  1.0000</r>
       <r>   2.1264  1.0000</r>
       <r>   2.1264  1.0000</r>
       <r>   2.2320  1.0000</r>
       <r>   2.2320  1.0000</r>
       <r>   2.2644  1.0000</r>
       <r>   2.2771  1.0000</r>
       <r>   2.2771  1.0000</r>
       <r>   2.2771  1.0000</r>
       <r>   2.2771  1.0000</r>
       <r>   2.3715  1.0000</r>
       <r>   2.3715  1.0000</r>
       <r>   2.5116  1.0000</r>
       <r>   2.5116  1.0000</r>
       <r>   2.5116  1.0000</r>
       <r>   2.5116  1.0000</r>
       <r>   2.5154  1.0000</r>
       <r>   2.5154  1.0000</r>
       <r>   2.5760  1.0000</r>
       <r>   2.5763  1.0000</r>
       <r>   2.5775  1.0000</r>
       <r>   2.5778  1.0000</r>
       <r>   3.3319  1.0000</r>
       <r>   3.3319  1.0000</r>
       <r>   3.3319  1.0000</r>
       <r>   3.3319  1.0000</r>
       <r>   3.8539  1.0000</r>
       <r>   3.8547  1.0000</r>
       <r>   3.8555  1.0000</r>
       <r>   3.8555  1.0000</r>
       <r>   3.8565  1.0000</r>
       <r>   3.8565  1.0000</r>
       <r>   3.8573  1.0000</r>
       <r>   3.8581  1.0000</r>
       <r>   4.4615  0.0000</r>
       <r>   4.4615  0.0000</r>
       <r>   4.4615  0.0000</r>
       <r>   4.4615  0.0000</r>
       <r>   5.0108  0.0000</r>
       <r>   5.8828  0.0000</r>
       <r>   5.8828  0.0000</r>
       <r>   7.0221  0.0000</r>
       <r>   7.0221  0.0000</r>
       <r>   7.0221  0.0000</r>
       <r>   7.0221  0.0000</r>
       <r>   7.9657  0.0000</r>
       <r>   7.9657  0.0000</r>
       <r>   7.9657  0.0000</r>
       <r>   7.9657  0.0000</r>
       <r>   8.4747  0.0000</r>
       <r>   8.4747  0.0000</r>
       <r>   9.0997  0.0000</r>
       <r>   9.0997  0.0000</r>
       <r>   9.2248  0.0000</r>
       <r>   9.2248  0.0000</r>
       <r>   9.8935  0.0000</r>
       <r>  10.3273  0.0000</r>
       <r>  10.3273  0.0000</r>
       <r>  10.3273  0.0000</r>
       <r>  10.3273  0.0000</r>
       <r>  10.3423  0.0000</r>
       <r>  10.3423  0.0000</r>
       <r>  10.3423  0.0000</r>
       <r>  10.3423  0.0000</r>
       <r>  11.1502  0.0000</r>
       <r>  11.1517  0.0000</r>
       <r>  11.2943  0.0000</r>
      </set>
      <set comment="kpoint 4">
       <r>  -4.1928  1.0000</r>
       <r>  -2.9806  1.0000</r>
       <r>  -2.0431  1.0000</r>
       <r>  -2.0431  1.0000</r>
       <r>  -2.0431  1.0000</r>
       <r>  -2.0431  1.0000</r>
       <r>  -1.9472  1.0000</r>
       <r>  -1.9472  1.0000</r>
       <r>  -1.9472  1.0000</r>
       <r>  -1.9472  1.0000</r>
       <r>  -1.7350  1.0000</r>
       <r>  -1.6819  1.0000</r>
       <r>  -1.6818  1.0000</r>
       <r>  -1.6627  1.0000</r>
       <r>  -1.4832  1.0000</r>
       <r>  -1.4542  1.0000</r>
       <r>  -1.4542  1.0000</r>
       <r>  -1.3171  1.0000</r>
       <r>  -1.3171  1.0000</r>
       <r>  -1.3171  1.0000</r>
       <r>  -1.3170  1.0000</r>
       <r>  -1.2967  1.0000</r>
       <r>  -1.2967  1.0000</r>
       <r>  -1.2966  1.0000</r>
       <r>  -1.2966  1.0000</r>
       <r>  -1.0735  1.0000</r>
       <r>  -1.0431  1.0000</r>
       <r>  -1.0431  1.0000</r>
       <r>  -0.7848  1.0000</r>
       <r>  -0.7848  1.0000</r>
       <r>  -0.7843  1.0000</r>
       <r>  -0.7842  1.0000</r>
       <r>  -0.7839  1.0000</r>
       <r>  -0.7839  1.0000</r>
       <r>  -0.7695  1.0000</r>
       <r>  -0.7694  1.0000</r>
       <r>  -0.7694  1.0000</r>
       <r>  -0.7694  1.0000</r>
       <r>  -0.7180  1.0000</r>
       <r>  -0.7180  1.0000</r>
       <r>  -0.7180  1.0000</r>
       <r>  -0.7180  1.0000</r>
       <r>  -0.4384  1.0000</r>
       <r>  -0.4166  1.0000</r>
       <r>  -0.4165  1.0000</r>
       <r>  -0.4165  1.0000</r>
       <r>  -0.4165  1.0000</r>
       <r>  -0.2857  1.0000</r>
       <r>  -0.2857  1.0000</r>
       <r>  -0.2857  1.0000</r>
       <r>  -0.2857  1.0000</r>
       <r>  -0.2016  1.0000</r>
       <r>  -0.2008  1.0000</r>
       <r>  -0.2008  1.0000</r>
       <r>  -0.2007  1.0000</r>
       <r>  -0.1958  1.0000</r>
       <r>  -0.1958  1.0000</r>
       <r>  -0.1958  1.0000</r>
       <r>  -0.1949  1.0000</r>
       <r>  -0.1821  1.0000</r>
       <r>  -0.1821  1.0000</r>
       <r>  -0.1820  1.0000</r>
       <r>  -0.1820  1.0000</r>
       <r>  -0.1052  1.0000</r>
       <r>  -0.1052  1.0000</r>
       <r>  -0.1052  1.0000</r>
       <r>  -0.1052  1.0000</r>
       <r>   0.0601  1.0000</r>
       <r>   0.0700  1.0000</r>
       <r>   0.0701  1.0000</r>
       <r>   0.0701  1.0000</r>
       <r>   0.0701  1.0000</r>
       <r>   0.0789  1.0000</r>
       <r>   0.0789  1.0000</r>
       <r>   0.0790  1.0000</r>
       <r>   0.0791  1.0000</r>
       <r>   0.1801  1.0000</r>
       <r>   0.1801  1.0000</r>
       <r>   0.1801  1.0000</r>
       <r>   0.1801  1.0000</r>
       <r>   0.2020  1.0000</r>
       <r>   0.2020  1.0000</r>
       <r>   0.3549  1.0000</r>
       <r>   0.3549  1.0000</r>
       <r>   0.3549  1.0000</r>
       <r>   0.3549  1.0000</r>
       <r>   0.4795  1.0000</r>
       <r>   0.4795  1.0000</r>
       <r>   0.4795  1.0000</r>
       <r>   0.4795  1.0000</r>
       <r>   0.5110  1.0000</r>
       <r>   0.5110  1.0000</r>
       <r>   0.6701  1.0000</r>
       <r>   0.6702  1.0000</r>
       <r>   0.6702  1.0000</r>
       <r>   0.6702  1.0000</r>
       <r>   0.7241  1.0000</r>
       <r>   0.7241  1.0000</r>
       <r>   0.8169  1.0000</r>
       <r>   1.0052  1.0000</r>
       <r>   1.0052  1.0000</r>
       <r>   1.0053  1.0000</r>
       <r>   1.0053  1.0000</r>
       <r>   1.0965  1.0000</r>
       <r>   1.0965  1.0000</r>
       <r>   1.0965  1.0000</r>
       <r>   1.0965  1.0000</r>
       <r>   1.1412  1.0000</r>
       <r>   1.1412  1.0000</r>
       <r>   1.1413  1.0000</r>
       <r>   1.1413  1.0000</r>
       <r>   1.1958  1.0000</r>
       <r>   1.1958  1.0000</r>
       <r>   1.1958  1.0000</r>
       <r>   1.1958  1.0000</r>
       <r>   1.2760  1.0000</r>
       <r>   1.2956  1.0000</r>
       <r>   1.2957  1.0000</r>
       <r>   1.2957  1.0000</r>
       <r>   1.2957  1.0000</r>
       <r>   1.3115  1.0000</r>
       <r>   1.3119  1.0000</r>
       <r>   1.3119  1.0000</r>
       <r>   1.3119  1.0000</r>
       <r>   1.3167  1.0000</r>
       <r>   1.3868  1.0000</r>
       <r>   1.4759  1.0000</r>
       <r>   1.4759  1.0000</r>
       <r>   1.6119  1.0000</r>
       <r>   1.6121  1.0000</r>
       <r>   1.6121  1.0000</r>
       <r>   1.6121  1.0000</r>
       <r>   1.6226  1.0000</r>
       <r>   1.6226  1.0000</r>
       <r>   1.6263  1.0000</r>
       <r>   1.6766  1.0000</r>
       <r>   1.6766  1.0000</r>
       <r>   1.6766  1.0000</r>
       <r>   1.6766  1.0000</r>
       <r>   1.9175  1.0000</r>
       <r>   1.9175  1.0000</r>
       <r>   1.9175  1.0000</r>
       <r>   1.9175  1.0000</r>
       <r>   1.9385  1.0000</r>
       <r>   1.9385  1.0000</r>
       <r>   1.9385  1.0000</r>
       <r>   1.9385  1.0000</r>
       <r>   1.9805  1.0000</r>
       <r>   2.1542  1.0000</r>
       <r>   2.1542  1.0000</r>
       <r>   2.1712  1.0000</r>
       <r>   2.1712  1.0000</r>
       <r>   2.2250  1.0000</r>
       <r>   2.2250  1.0000</r>
       <r>   2.2250  1.0000</r>
       <r>   2.2250  1.0000</r>
       <r>   2.2435  1.0000</r>
       <r>   2.4335  1.0000</r>
       <r>   2.4335  1.0000</r>
       <r>   2.4335  1.0000</r>
       <r>   2.4335  1.0000</r>
       <r>   2.4419  1.0000</r>
       <r>   2.4419  1.0000</r>
       <r>   2.5761  1.0000</r>
       <r>   2.5764  1.0000</r>
       <r>   2.5774  1.0000</r>
       <r>   2.5777  1.0000</r>
       <r>   3.0925  1.0000</r>
       <r>   3.0925  1.0000</r>
       <r>   3.0925  1.0000</r>
       <r>   3.0925  1.0000</r>
       <r>   3.8578  1.0000</r>
       <r>   3.8582  1.0000</r>
       <r>   3.8585  1.0000</r>
       <r>   3.8585  1.0000</r>
       <r>   3.8639  1.0000</r>
       <r>   3.8639  1.0000</r>
       <r>   3.8641  1.0000</r>
       <r>   3.8645  1.0000</r>
       <r>   4.4516  0.0000</r>
       <r>   4.8114  0.0000</r>
       <r>   4.8114  0.0000</r>
       <r>   4.8114  0.0000</r>
       <r>   4.8114  0.0000</r>
       <r>   6.1679  0.0000</r>
       <r>   6.1679  0.0000</r>
       <r>   7.3452  0.0000</r>
       <r>   7.3452  0.0000</r>
       <r>   7.3452  0.0000</r>
       <r>   7.3453  0.0000</r>
       <r>   7.5243  0.0000</r>
       <r>   7.5243  0.0000</r>
       <r>   7.5243  0.0000</r>
       <r>   7.5243  0.0000</r>
       <r>   8.5278  0.0000</r>
       <r>   8.5278  0.0000</r>
       <r>   8.7402  0.0000</r>
       <r>   8.7402  0.0000</r>
       <r>   9.0386  0.0000</r>
       <r>   9.0386  0.0000</r>
       <r>  10.4535  0.0000</r>
       <r>  10.4535  0.0000</r>
       <r>  10.4536  0.0000</r>
       <r>  10.4536  0.0000</r>
       <r>  10.4846  0.0000</r>
       <r>  10.4846  0.0000</r>
       <r>  10.4846  0.0000</r>
       <r>  10.4846  0.0000</r>
       <r>  10.6152  0.0000</r>
       <r>  10.6466  0.0000</r>
       <r>  10.6466  0.0000</r>
       <r>  10.6467  0.0000</r>
      </set>
      <set comment="kpoint 5">
       <r>  -4.0672  1.0000</r>
       <r>  -3.2480  1.0000</r>
       <r>  -1.9561  1.0000</r>
       <r>  -1.9561  1.0000</r>
       <r>  -1.9561  1.0000</r>
       <r>  -1.9561  1.0000</r>
       <r>  -1.8796  1.0000</r>
       <r>  -1.8796  1.0000</r>
       <r>  -1.8796  1.0000</r>
       <r>  -1.8796  1.0000</r>
       <r>  -1.7012  1.0000</r>
       <r>  -1.6161  1.0000</r>
       <r>  -1.6048  1.0000</r>
       <r>  -1.6048  1.0000</r>
       <r>  -1.4526  1.0000</r>
       <r>  -1.4526  1.0000</r>
       <r>  -1.4526  1.0000</r>
       <r>  -1.4526  1.0000</r>
       <r>  -1.4409  1.0000</r>
       <r>  -1.4384  1.0000</r>
       <r>  -1.4383  1.0000</r>
       <r>  -1.4383  1.0000</r>
       <r>  -1.4382  1.0000</r>
       <r>  -1.3886  1.0000</r>
       <r>  -1.3886  1.0000</r>
       <r>  -1.1648  1.0000</r>
       <r>  -1.1590  1.0000</r>
       <r>  -1.1590  1.0000</r>
       <r>  -0.9417  1.0000</r>
       <r>  -0.9417  1.0000</r>
       <r>  -0.7361  1.0000</r>
       <r>  -0.7360  1.0000</r>
       <r>  -0.7360  1.0000</r>
       <r>  -0.7360  1.0000</r>
       <r>  -0.7120  1.0000</r>
       <r>  -0.7120  1.0000</r>
       <r>  -0.7120  1.0000</r>
       <r>  -0.7119  1.0000</r>
       <r>  -0.6827  1.0000</r>
       <r>  -0.6827  1.0000</r>
       <r>  -0.6827  1.0000</r>
       <r>  -0.6827  1.0000</r>
       <r>  -0.4749  1.0000</r>
       <r>  -0.4749  1.0000</r>
       <r>  -0.4749  1.0000</r>
       <r>  -0.4749  1.0000</r>
       <r>  -0.3342  1.0000</r>
       <r>  -0.3322  1.0000</r>
       <r>  -0.3322  1.0000</r>
       <r>  -0.3322  1.0000</r>
       <r>  -0.3321  1.0000</r>
       <r>  -0.2725  1.0000</r>
       <r>  -0.2725  1.0000</r>
       <r>  -0.2725  1.0000</r>
       <r>  -0.2725  1.0000</r>
       <r>  -0.1964  1.0000</r>
       <r>  -0.1958  1.0000</r>
       <r>  -0.1958  1.0000</r>
       <r>  -0.1958  1.0000</r>
       <r>  -0.1877  1.0000</r>
       <r>  -0.1877  1.0000</r>
       <r>  -0.1877  1.0000</r>
       <r>  -0.1871  1.0000</r>
       <r>  -0.0670  1.0000</r>
       <r>  -0.0670  1.0000</r>
       <r>  -0.0670  1.0000</r>
       <r>  -0.0670  1.0000</r>
       <r>   0.0045  1.0000</r>
       <r>   0.0558  1.0000</r>
       <r>   0.0558  1.0000</r>
       <r>   0.0558  1.0000</r>
       <r>   0.0558  1.0000</r>
       <r>   0.0893  1.0000</r>
       <r>   0.0894  1.0000</r>
       <r>   0.0894  1.0000</r>
       <r>   0.0894  1.0000</r>
       <r>   0.2326  1.0000</r>
       <r>   0.2326  1.0000</r>
       <r>   0.2326  1.0000</r>
       <r>   0.2326  1.0000</r>
       <r>   0.2544  1.0000</r>
       <r>   0.2544  1.0000</r>
       <r>   0.3691  1.0000</r>
       <r>   0.3691  1.0000</r>
       <r>   0.3691  1.0000</r>
       <r>   0.3691  1.0000</r>
       <r>   0.5662  1.0000</r>
       <r>   0.5662  1.0000</r>
       <r>   0.5662  1.0000</r>
       <r>   0.5662  1.0000</r>
       <r>   0.5872  1.0000</r>
       <r>   0.5872  1.0000</r>
       <r>   0.5872  1.0000</r>
       <r>   0.5872  1.0000</r>
       <r>   0.6045  1.0000</r>
       <r>   0.6045  1.0000</r>
       <r>   0.7774  1.0000</r>
       <r>   0.7774  1.0000</r>
       <r>   0.8957  1.0000</r>
       <r>   1.0849  1.0000</r>
       <r>   1.0849  1.0000</r>
       <r>   1.0849  1.0000</r>
       <r>   1.0849  1.0000</r>
       <r>   1.1400  1.0000</r>
       <r>   1.1400  1.0000</r>
       <r>   1.1400  1.0000</r>
       <r>   1.1401  1.0000</r>
       <r>   1.1693  1.0000</r>
       <r>   1.1693  1.0000</r>
       <r>   1.1693  1.0000</r>
       <r>   1.1693  1.0000</r>
       <r>   1.1741  1.0000</r>
       <r>   1.1742  1.0000</r>
       <r>   1.1742  1.0000</r>
       <r>   1.1742  1.0000</r>
       <r>   1.2183  1.0000</r>
       <r>   1.3023  1.0000</r>
       <r>   1.3023  1.0000</r>
       <r>   1.3023  1.0000</r>
       <r>   1.3023  1.0000</r>
       <r>   1.3199  1.0000</r>
       <r>   1.3199  1.0000</r>
       <r>   1.3199  1.0000</r>
       <r>   1.3199  1.0000</r>
       <r>   1.4120  1.0000</r>
       <r>   1.5735  1.0000</r>
       <r>   1.6022  1.0000</r>
       <r>   1.6023  1.0000</r>
       <r>   1.6675  1.0000</r>
       <r>   1.6675  1.0000</r>
       <r>   1.6675  1.0000</r>
       <r>   1.6675  1.0000</r>
       <r>   1.7004  1.0000</r>
       <r>   1.7338  1.0000</r>
       <r>   1.7338  1.0000</r>
       <r>   1.7338  1.0000</r>
       <r>   1.7338  1.0000</r>
       <r>   1.7837  1.0000</r>
       <r>   1.7837  1.0000</r>
       <r>   1.8069  1.0000</r>
       <r>   1.8069  1.0000</r>
       <r>   1.8069  1.0000</r>
       <r>   1.8069  1.0000</r>
       <r>   1.8972  1.0000</r>
       <r>   1.8972  1.0000</r>
       <r>   2.0366  1.0000</r>
       <r>   2.0720  1.0000</r>
       <r>   2.0720  1.0000</r>
       <r>   2.0720  1.0000</r>
       <r>   2.0720  1.0000</r>
       <r>   2.0880  1.0000</r>
       <r>   2.0881  1.0000</r>
       <r>   2.1542  1.0000</r>
       <r>   2.1542  1.0000</r>
       <r>   2.1542  1.0000</r>
       <r>   2.1543  1.0000</r>
       <r>   2.2149  1.0000</r>
       <r>   2.3314  1.0000</r>
       <r>   2.3314  1.0000</r>
       <r>   2.3314  1.0000</r>
       <r>   2.3314  1.0000</r>
       <r>   2.3437  1.0000</r>
       <r>   2.3437  1.0000</r>
       <r>   2.5762  1.0000</r>
       <r>   2.5765  1.0000</r>
       <r>   2.5772  1.0000</r>
       <r>   2.5776  1.0000</r>
       <r>   2.8634  1.0000</r>
       <r>   2.8634  1.0000</r>
       <r>   2.8634  1.0000</r>
       <r>   2.8634  1.0000</r>
       <r>   3.8523  1.0000</r>
       <r>   3.8618  1.0000</r>
       <r>   3.8620  1.0000</r>
       <r>   3.8620  1.0000</r>
       <r>   3.8623  1.0000</r>
       <r>   3.8684  1.0000</r>
       <r>   3.8684  1.0000</r>
       <r>   3.8686  1.0000</r>
       <r>   3.8692  1.0000</r>
       <r>   5.1963  0.0000</r>
       <r>   5.1963  0.0000</r>
       <r>   5.1963  0.0000</r>
       <r>   5.1963  0.0000</r>
       <r>   6.5190  0.0000</r>
       <r>   6.5190  0.0000</r>
       <r>   7.0397  0.0000</r>
       <r>   7.0397  0.0000</r>
       <r>   7.0397  0.0000</r>
       <r>   7.0398  0.0000</r>
       <r>   7.7607  0.0000</r>
       <r>   7.7607  0.0000</r>
       <r>   7.7607  0.0000</r>
       <r>   7.7607  0.0000</r>
       <r>   8.2623  0.0000</r>
       <r>   8.2623  0.0000</r>
       <r>   8.5984  0.0000</r>
       <r>   8.5984  0.0000</r>
       <r>   8.9599  0.0000</r>
       <r>   8.9599  0.0000</r>
       <r>  10.0021  0.0000</r>
       <r>  10.0021  0.0000</r>
       <r>  10.0022  0.0000</r>
       <r>  10.0022  0.0000</r>
       <r>  10.5667  0.0000</r>
       <r>  10.5667  0.0000</r>
       <r>  10.5668  0.0000</r>
       <r>  10.5668  0.0000</r>
       <r>  10.6974  0.0000</r>
       <r>  10.6974  0.0000</r>
       <r>  10.6974  0.0000</r>
       <r>  10.6974  0.0000</r>
      </set>
      <set comment="kpoint 6">
       <r>  -3.9078  1.0000</r>
       <r>  -3.4950  1.0000</r>
       <r>  -1.8490  1.0000</r>
       <r>  -1.8490  1.0000</r>
       <r>  -1.8490  1.0000</r>
       <r>  -1.8490  1.0000</r>
       <r>  -1.7937  1.0000</r>
       <r>  -1.7936  1.0000</r>
       <r>  -1.7936  1.0000</r>
       <r>  -1.7936  1.0000</r>
       <r>  -1.6645  1.0000</r>
       <r>  -1.6110  1.0000</r>
       <r>  -1.5913  1.0000</r>
       <r>  -1.5913  1.0000</r>
       <r>  -1.5913  1.0000</r>
       <r>  -1.5912  1.0000</r>
       <r>  -1.5711  1.0000</r>
       <r>  -1.5711  1.0000</r>
       <r>  -1.5711  1.0000</r>
       <r>  -1.5711  1.0000</r>
       <r>  -1.5098  1.0000</r>
       <r>  -1.5098  1.0000</r>
       <r>  -1.3870  1.0000</r>
       <r>  -1.3045  1.0000</r>
       <r>  -1.3045  1.0000</r>
       <r>  -1.2811  1.0000</r>
       <r>  -1.2811  1.0000</r>
       <r>  -1.2482  1.0000</r>
       <r>  -1.0809  1.0000</r>
       <r>  -1.0809  1.0000</r>
       <r>  -0.6869  1.0000</r>
       <r>  -0.6867  1.0000</r>
       <r>  -0.6867  1.0000</r>
       <r>  -0.6867  1.0000</r>
       <r>  -0.6686  1.0000</r>
       <r>  -0.6686  1.0000</r>
       <r>  -0.6686  1.0000</r>
       <r>  -0.6685  1.0000</r>
       <r>  -0.6392  1.0000</r>
       <r>  -0.6392  1.0000</r>
       <r>  -0.6392  1.0000</r>
       <r>  -0.6391  1.0000</r>
       <r>  -0.5332  1.0000</r>
       <r>  -0.5331  1.0000</r>
       <r>  -0.5331  1.0000</r>
       <r>  -0.5331  1.0000</r>
       <r>  -0.3728  1.0000</r>
       <r>  -0.3727  1.0000</r>
       <r>  -0.3727  1.0000</r>
       <r>  -0.3727  1.0000</r>
       <r>  -0.3478  1.0000</r>
       <r>  -0.3478  1.0000</r>
       <r>  -0.3478  1.0000</r>
       <r>  -0.3477  1.0000</r>
       <r>  -0.2358  1.0000</r>
       <r>  -0.1916  1.0000</r>
       <r>  -0.1908  1.0000</r>
       <r>  -0.1908  1.0000</r>
       <r>  -0.1908  1.0000</r>
       <r>  -0.1853  1.0000</r>
       <r>  -0.1852  1.0000</r>
       <r>  -0.1852  1.0000</r>
       <r>  -0.1844  1.0000</r>
       <r>  -0.0645  1.0000</r>
       <r>  -0.0335  1.0000</r>
       <r>  -0.0335  1.0000</r>
       <r>  -0.0335  1.0000</r>
       <r>  -0.0335  1.0000</r>
       <r>   0.0285  1.0000</r>
       <r>   0.0285  1.0000</r>
       <r>   0.0285  1.0000</r>
       <r>   0.0285  1.0000</r>
       <r>   0.1290  1.0000</r>
       <r>   0.1290  1.0000</r>
       <r>   0.1290  1.0000</r>
       <r>   0.1291  1.0000</r>
       <r>   0.2711  1.0000</r>
       <r>   0.2711  1.0000</r>
       <r>   0.2711  1.0000</r>
       <r>   0.2712  1.0000</r>
       <r>   0.2988  1.0000</r>
       <r>   0.2988  1.0000</r>
       <r>   0.2988  1.0000</r>
       <r>   0.2988  1.0000</r>
       <r>   0.3213  1.0000</r>
       <r>   0.3213  1.0000</r>
       <r>   0.4675  1.0000</r>
       <r>   0.4675  1.0000</r>
       <r>   0.4675  1.0000</r>
       <r>   0.4675  1.0000</r>
       <r>   0.4969  1.0000</r>
       <r>   0.4969  1.0000</r>
       <r>   0.8461  1.0000</r>
       <r>   0.8461  1.0000</r>
       <r>   0.8461  1.0000</r>
       <r>   0.8461  1.0000</r>
       <r>   0.9817  1.0000</r>
       <r>   1.0537  1.0000</r>
       <r>   1.0537  1.0000</r>
       <r>   1.1404  1.0000</r>
       <r>   1.1404  1.0000</r>
       <r>   1.1405  1.0000</r>
       <r>   1.1405  1.0000</r>
       <r>   1.1477  1.0000</r>
       <r>   1.1529  1.0000</r>
       <r>   1.1529  1.0000</r>
       <r>   1.1530  1.0000</r>
       <r>   1.1530  1.0000</r>
       <r>   1.1646  1.0000</r>
       <r>   1.1647  1.0000</r>
       <r>   1.1647  1.0000</r>
       <r>   1.1647  1.0000</r>
       <r>   1.2356  1.0000</r>
       <r>   1.2357  1.0000</r>
       <r>   1.2357  1.0000</r>
       <r>   1.2357  1.0000</r>
       <r>   1.2905  1.0000</r>
       <r>   1.2905  1.0000</r>
       <r>   1.2906  1.0000</r>
       <r>   1.2906  1.0000</r>
       <r>   1.2979  1.0000</r>
       <r>   1.2979  1.0000</r>
       <r>   1.2980  1.0000</r>
       <r>   1.2981  1.0000</r>
       <r>   1.3965  1.0000</r>
       <r>   1.3965  1.0000</r>
       <r>   1.3965  1.0000</r>
       <r>   1.3965  1.0000</r>
       <r>   1.4437  1.0000</r>
       <r>   1.5251  1.0000</r>
       <r>   1.6203  1.0000</r>
       <r>   1.6203  1.0000</r>
       <r>   1.7356  1.0000</r>
       <r>   1.7356  1.0000</r>
       <r>   1.8533  1.0000</r>
       <r>   1.8533  1.0000</r>
       <r>   1.8533  1.0000</r>
       <r>   1.8533  1.0000</r>
       <r>   1.9402  1.0000</r>
       <r>   1.9402  1.0000</r>
       <r>   1.9431  1.0000</r>
       <r>   1.9431  1.0000</r>
       <r>   1.9431  1.0000</r>
       <r>   1.9431  1.0000</r>
       <r>   1.9849  1.0000</r>
       <r>   1.9850  1.0000</r>
       <r>   2.0669  1.0000</r>
       <r>   2.0669  1.0000</r>
       <r>   2.0669  1.0000</r>
       <r>   2.0669  1.0000</r>
       <r>   2.0891  1.0000</r>
       <r>   2.1637  1.0000</r>
       <r>   2.1791  1.0000</r>
       <r>   2.2114  1.0000</r>
       <r>   2.2114  1.0000</r>
       <r>   2.2114  1.0000</r>
       <r>   2.2114  1.0000</r>
       <r>   2.2244  1.0000</r>
       <r>   2.2244  1.0000</r>
       <r>   2.2421  1.0000</r>
       <r>   2.2422  1.0000</r>
       <r>   2.2422  1.0000</r>
       <r>   2.2422  1.0000</r>
       <r>   2.5762  1.0000</r>
       <r>   2.5767  1.0000</r>
       <r>   2.5771  1.0000</r>
       <r>   2.5776  1.0000</r>
       <r>   2.6440  1.0000</r>
       <r>   2.6440  1.0000</r>
       <r>   2.6440  1.0000</r>
       <r>   2.6440  1.0000</r>
       <r>   3.2576  1.0000</r>
       <r>   3.8649  1.0000</r>
       <r>   3.8653  1.0000</r>
       <r>   3.8656  1.0000</r>
       <r>   3.8656  1.0000</r>
       <r>   3.8698  1.0000</r>
       <r>   3.8698  1.0000</r>
       <r>   3.8700  1.0000</r>
       <r>   3.8705  1.0000</r>
       <r>   5.6167  0.0000</r>
       <r>   5.6167  0.0000</r>
[...]
       <r>   0.5585  1.0000</r>
       <r>   0.5586  1.0000</r>
       <r>   0.5596  1.0000</r>
       <r>   0.5596  1.0000</r>
       <r>   0.6767  1.0000</r>
       <r>   0.6767  1.0000</r>
       <r>   0.6768  1.0000</r>
       <r>   0.6768  1.0000</r>
       <r>   0.8869  1.0000</r>
       <r>   0.8870  1.0000</r>
       <r>   0.8870  1.0000</r>
       <r>   0.8870  1.0000</r>
       <r>   0.9715  1.0000</r>
       <r>   0.9715  1.0000</r>
       <r>   0.9719  1.0000</r>
       <r>   0.9719  1.0000</r>
       <r>   0.9719  1.0000</r>
       <r>   0.9719  1.0000</r>
       <r>   0.9723  1.0000</r>
       <r>   0.9723  1.0000</r>
       <r>   1.2855  1.0000</r>
       <r>   1.2858  1.0000</r>
       <r>   1.2858  1.0000</r>
       <r>   1.2858  1.0000</r>
       <r>   1.3299  1.0000</r>
       <r>   1.3301  1.0000</r>
       <r>   1.3301  1.0000</r>
       <r>   1.3301  1.0000</r>
       <r>   1.3330  1.0000</r>
       <r>   1.3330  1.0000</r>
       <r>   1.3335  1.0000</r>
       <r>   1.3335  1.0000</r>
       <r>   1.3335  1.0000</r>
       <r>   1.3340  1.0000</r>
       <r>   1.3342  1.0000</r>
       <r>   1.3342  1.0000</r>
       <r>   1.5453  1.0000</r>
       <r>   1.5455  1.0000</r>
       <r>   1.5455  1.0000</r>
       <r>   1.5455  1.0000</r>
       <r>   1.5530  1.0000</r>
       <r>   1.5530  1.0000</r>
       <r>   1.5530  1.0000</r>
       <r>   1.5532  1.0000</r>
       <r>   1.7270  1.0000</r>
       <r>   1.7270  1.0000</r>
       <r>   1.7270  1.0000</r>
       <r>   1.7270  1.0000</r>
       <r>   2.3329  1.0000</r>
       <r>   2.3329  1.0000</r>
       <r>   2.3331  1.0000</r>
       <r>   2.3331  1.0000</r>
       <r>   2.3331  1.0000</r>
       <r>   2.3331  1.0000</r>
       <r>   2.3333  1.0000</r>
       <r>   2.3333  1.0000</r>
       <r>   2.3494  1.0000</r>
       <r>   2.3494  1.0000</r>
       <r>   2.3494  1.0000</r>
       <r>   2.3494  1.0000</r>
       <r>   2.3690  1.0000</r>
       <r>   2.3690  1.0000</r>
       <r>   2.3691  1.0000</r>
       <r>   2.3691  1.0000</r>
       <r>   2.3710  1.0000</r>
       <r>   2.3710  1.0000</r>
       <r>   2.3711  1.0000</r>
       <r>   2.3712  1.0000</r>
       <r>   2.3712  1.0000</r>
       <r>   2.3712  1.0000</r>
       <r>   2.3714  1.0000</r>
       <r>   2.3714  1.0000</r>
       <r>   4.0599  1.0000</r>
       <r>   4.0599  1.0000</r>
       <r>   4.0599  1.0000</r>
       <r>   4.0599  1.0000</r>
       <r>   4.7117  0.0000</r>
       <r>   4.7117  0.0000</r>
       <r>   4.7120  0.0000</r>
       <r>   4.7120  0.0000</r>
       <r>   4.7120  0.0000</r>
       <r>   4.7120  0.0000</r>
       <r>   4.7122  0.0000</r>
       <r>   4.7122  0.0000</r>
       <r>   5.6400  0.0000</r>
       <r>   5.6400  0.0000</r>
       <r>   5.6405  0.0000</r>
       <r>   5.6405  0.0000</r>
       <r>   5.6405  0.0000</r>
       <r>   5.6405  0.0000</r>
       <r>   5.6410  0.0000</r>
       <r>   5.6410  0.0000</r>
       <r>   6.2923  0.0000</r>
       <r>   6.2923  0.0000</r>
       <r>   6.2923  0.0000</r>
       <r>   6.2923  0.0000</r>
       <r>   8.3741  0.0000</r>
       <r>   8.3741  0.0000</r>
       <r>   8.3744  0.0000</r>
       <r>   8.3744  0.0000</r>
       <r>   8.3744  0.0000</r>
       <r>   8.3744  0.0000</r>
       <r>   8.3747  0.0000</r>
       <r>   8.3747  0.0000</r>
       <r>   8.7853  0.0000</r>
       <r>   8.7853  0.0000</r>
       <r>   8.7853  0.0000</r>
       <r>   8.7853  0.0000</r>
       <r>  10.0116  0.0000</r>
       <r>  10.0116  0.0000</r>
       <r>  10.0116  0.0000</r>
       <r>  10.0116  0.0000</r>
       <r>  10.3616  0.0000</r>
       <r>  10.3616  0.0000</r>
       <r>  10.3617  0.0000</r>
       <r>  10.3618  0.0000</r>
      </set>
      <set comment="kpoint 195">
       <r>  -2.8476  1.0000</r>
       <r>  -2.8475  1.0000</r>
       <r>  -2.8475  1.0000</r>
       <r>  -2.8475  1.0000</r>
       <r>  -2.5936  1.0000</r>
       <r>  -2.5936  1.0000</r>
       <r>  -2.5936  1.0000</r>
       <r>  -2.5935  1.0000</r>
       <r>  -1.3236  1.0000</r>
       <r>  -1.3235  1.0000</r>
       <r>  -1.3235  1.0000</r>
       <r>  -1.3235  1.0000</r>
       <r>  -1.2974  1.0000</r>
       <r>  -1.2974  1.0000</r>
       <r>  -1.2971  1.0000</r>
       <r>  -1.2971  1.0000</r>
       <r>  -1.2971  1.0000</r>
       <r>  -1.2970  1.0000</r>
       <r>  -1.2968  1.0000</r>
       <r>  -1.2968  1.0000</r>
       <r>  -1.2750  1.0000</r>
       <r>  -1.2743  1.0000</r>
       <r>  -1.2743  1.0000</r>
       <r>  -1.2738  1.0000</r>
       <r>  -1.2730  1.0000</r>
       <r>  -1.2730  1.0000</r>
       <r>  -1.2728  1.0000</r>
       <r>  -1.2727  1.0000</r>
       <r>  -1.2724  1.0000</r>
       <r>  -1.2718  1.0000</r>
       <r>  -1.2718  1.0000</r>
       <r>  -1.2713  1.0000</r>
       <r>  -0.6195  1.0000</r>
       <r>  -0.6195  1.0000</r>
       <r>  -0.6190  1.0000</r>
       <r>  -0.6190  1.0000</r>
       <r>  -0.6190  1.0000</r>
       <r>  -0.6189  1.0000</r>
       <r>  -0.6184  1.0000</r>
       <r>  -0.6184  1.0000</r>
       <r>  -0.5893  1.0000</r>
       <r>  -0.5892  1.0000</r>
       <r>  -0.5892  1.0000</r>
       <r>  -0.5892  1.0000</r>
       <r>  -0.4244  1.0000</r>
       <r>  -0.4241  1.0000</r>
       <r>  -0.4241  1.0000</r>
       <r>  -0.4240  1.0000</r>
       <r>  -0.4236  1.0000</r>
       <r>  -0.4236  1.0000</r>
       <r>  -0.4232  1.0000</r>
       <r>  -0.4232  1.0000</r>
       <r>  -0.4232  1.0000</r>
       <r>  -0.4229  1.0000</r>
       <r>  -0.4227  1.0000</r>
       <r>  -0.4227  1.0000</r>
       <r>   0.0107  1.0000</r>
       <r>   0.0107  1.0000</r>
       <r>   0.0107  1.0000</r>
       <r>   0.0107  1.0000</r>
       <r>   0.1274  1.0000</r>
       <r>   0.1274  1.0000</r>
       <r>   0.1274  1.0000</r>
       <r>   0.1274  1.0000</r>
       <r>   0.3580  1.0000</r>
       <r>   0.3580  1.0000</r>
       <r>   0.3580  1.0000</r>
       <r>   0.3581  1.0000</r>
       <r>   0.3640  1.0000</r>
       <r>   0.3640  1.0000</r>
       <r>   0.3640  1.0000</r>
       <r>   0.3641  1.0000</r>
       <r>   0.3783  1.0000</r>
       <r>   0.3783  1.0000</r>
       <r>   0.3787  1.0000</r>
       <r>   0.3788  1.0000</r>
       <r>   0.3793  1.0000</r>
       <r>   0.3793  1.0000</r>
       <r>   0.3794  1.0000</r>
       <r>   0.3794  1.0000</r>
       <r>   0.3802  1.0000</r>
       <r>   0.3804  1.0000</r>
       <r>   0.3808  1.0000</r>
       <r>   0.3808  1.0000</r>
       <r>   0.4344  1.0000</r>
       <r>   0.4344  1.0000</r>
       <r>   0.4360  1.0000</r>
       <r>   0.4360  1.0000</r>
       <r>   0.4360  1.0000</r>
       <r>   0.4360  1.0000</r>
       <r>   0.4375  1.0000</r>
       <r>   0.4375  1.0000</r>
       <r>   0.5200  1.0000</r>
       <r>   0.5200  1.0000</r>
       <r>   0.5212  1.0000</r>
       <r>   0.5212  1.0000</r>
       <r>   0.5212  1.0000</r>
       <r>   0.5213  1.0000</r>
       <r>   0.5225  1.0000</r>
       <r>   0.5225  1.0000</r>
       <r>   0.5779  1.0000</r>
       <r>   0.5780  1.0000</r>
       <r>   0.5780  1.0000</r>
       <r>   0.5780  1.0000</r>
       <r>   0.9943  1.0000</r>
       <r>   0.9943  1.0000</r>
       <r>   0.9943  1.0000</r>
       <r>   0.9944  1.0000</r>
       <r>   1.0293  1.0000</r>
       <r>   1.0293  1.0000</r>
       <r>   1.0298  1.0000</r>
       <r>   1.0298  1.0000</r>
       <r>   1.0298  1.0000</r>
       <r>   1.0299  1.0000</r>
       <r>   1.0304  1.0000</r>
       <r>   1.0304  1.0000</r>
       <r>   1.2063  1.0000</r>
       <r>   1.2063  1.0000</r>
       <r>   1.2069  1.0000</r>
       <r>   1.2070  1.0000</r>
       <r>   1.2070  1.0000</r>
       <r>   1.2070  1.0000</r>
       <r>   1.2076  1.0000</r>
       <r>   1.2076  1.0000</r>
       <r>   1.2192  1.0000</r>
       <r>   1.2192  1.0000</r>
       <r>   1.2192  1.0000</r>
       <r>   1.2193  1.0000</r>
       <r>   1.3895  1.0000</r>
       <r>   1.3895  1.0000</r>
       <r>   1.3895  1.0000</r>
       <r>   1.3895  1.0000</r>
       <r>   1.5012  1.0000</r>
       <r>   1.5013  1.0000</r>
       <r>   1.5013  1.0000</r>
       <r>   1.5013  1.0000</r>
       <r>   1.5217  1.0000</r>
       <r>   1.5217  1.0000</r>
       <r>   1.5217  1.0000</r>
       <r>   1.5219  1.0000</r>
       <r>   1.6131  1.0000</r>
       <r>   1.6132  1.0000</r>
       <r>   1.6132  1.0000</r>
       <r>   1.6132  1.0000</r>
       <r>   2.3681  1.0000</r>
       <r>   2.3681  1.0000</r>
       <r>   2.3682  1.0000</r>
       <r>   2.3682  1.0000</r>
       <r>   2.3682  1.0000</r>
       <r>   2.3682  1.0000</r>
       <r>   2.3683  1.0000</r>
       <r>   2.3683  1.0000</r>
       <r>   2.3767  1.0000</r>
       <r>   2.3767  1.0000</r>
       <r>   2.3767  1.0000</r>
       <r>   2.3767  1.0000</r>
       <r>   2.3879  1.0000</r>
       <r>   2.3879  1.0000</r>
       <r>   2.3880  1.0000</r>
       <r>   2.3880  1.0000</r>
       <r>   2.3927  1.0000</r>
       <r>   2.3927  1.0000</r>
       <r>   2.3928  1.0000</r>
       <r>   2.3928  1.0000</r>
       <r>   2.3929  1.0000</r>
       <r>   2.3929  1.0000</r>
       <r>   2.3930  1.0000</r>
       <r>   2.3930  1.0000</r>
       <r>   4.5816  0.0000</r>
       <r>   4.5816  0.0000</r>
       <r>   4.5816  0.0000</r>
       <r>   4.5816  0.0000</r>
       <r>   4.9089  0.0000</r>
       <r>   4.9089  0.0000</r>
       <r>   4.9092  0.0000</r>
       <r>   4.9092  0.0000</r>
       <r>   4.9092  0.0000</r>
       <r>   4.9092  0.0000</r>
       <r>   4.9095  0.0000</r>
       <r>   4.9095  0.0000</r>
       <r>   5.3782  0.0000</r>
       <r>   5.3782  0.0000</r>
       <r>   5.3786  0.0000</r>
       <r>   5.3786  0.0000</r>
       <r>   5.3786  0.0000</r>
       <r>   5.3786  0.0000</r>
       <r>   5.3791  0.0000</r>
       <r>   5.3791  0.0000</r>
       <r>   5.7077  0.0000</r>
       <r>   5.7077  0.0000</r>
       <r>   5.7078  0.0000</r>
       <r>   5.7078  0.0000</r>
       <r>   8.8312  0.0000</r>
       <r>   8.8312  0.0000</r>
       <r>   8.8315  0.0000</r>
       <r>   8.8315  0.0000</r>
       <r>   8.8315  0.0000</r>
       <r>   8.8315  0.0000</r>
       <r>   8.8317  0.0000</r>
       <r>   8.8317  0.0000</r>
       <r>   9.0270  0.0000</r>
       <r>   9.0270  0.0000</r>
       <r>   9.0270  0.0000</r>
       <r>   9.0270  0.0000</r>
       <r>   9.6485  0.0000</r>
       <r>   9.6485  0.0000</r>
       <r>   9.6485  0.0000</r>
       <r>   9.6485  0.0000</r>
       <r>   9.8303  0.0000</r>
       <r>   9.8303  0.0000</r>
       <r>   9.8304  0.0000</r>
       <r>   9.8305  0.0000</r>
      </set>
      <set comment="kpoint 196">
       <r>  -2.7320  1.0000</r>
       <r>  -2.7288  1.0000</r>
       <r>  -2.7288  1.0000</r>
       <r>  -2.7283  1.0000</r>
       <r>  -2.7280  1.0000</r>
       <r>  -2.7275  1.0000</r>
       <r>  -2.7275  1.0000</r>
       <r>  -2.7243  1.0000</r>
       <r>  -1.2922  1.0000</r>
       <r>  -1.2922  1.0000</r>
       <r>  -1.2922  1.0000</r>
       <r>  -1.2921  1.0000</r>
       <r>  -1.2917  1.0000</r>
       <r>  -1.2908  1.0000</r>
       <r>  -1.2900  1.0000</r>
       <r>  -1.2900  1.0000</r>
       <r>  -1.2900  1.0000</r>
       <r>  -1.2899  1.0000</r>
       <r>  -1.2899  1.0000</r>
       <r>  -1.2898  1.0000</r>
       <r>  -1.2898  1.0000</r>
       <r>  -1.2897  1.0000</r>
       <r>  -1.2897  1.0000</r>
       <r>  -1.2896  1.0000</r>
       <r>  -1.2896  1.0000</r>
       <r>  -1.2896  1.0000</r>
       <r>  -1.2889  1.0000</r>
       <r>  -1.2880  1.0000</r>
       <r>  -1.2876  1.0000</r>
       <r>  -1.2875  1.0000</r>
       <r>  -1.2875  1.0000</r>
       <r>  -1.2874  1.0000</r>
       <r>  -0.5184  1.0000</r>
       <r>  -0.5150  1.0000</r>
       <r>  -0.5147  1.0000</r>
       <r>  -0.5145  1.0000</r>
       <r>  -0.5145  1.0000</r>
       <r>  -0.5139  1.0000</r>
       <r>  -0.5135  1.0000</r>
       <r>  -0.5135  1.0000</r>
       <r>  -0.5133  1.0000</r>
       <r>  -0.5133  1.0000</r>
       <r>  -0.5133  1.0000</r>
       <r>  -0.5132  1.0000</r>
       <r>  -0.5132  1.0000</r>
       <r>  -0.5132  1.0000</r>
       <r>  -0.5132  1.0000</r>
       <r>  -0.5131  1.0000</r>
       <r>  -0.5130  1.0000</r>
       <r>  -0.5130  1.0000</r>
       <r>  -0.5126  1.0000</r>
       <r>  -0.5120  1.0000</r>
       <r>  -0.5120  1.0000</r>
       <r>  -0.5118  1.0000</r>
       <r>  -0.5115  1.0000</r>
       <r>  -0.5082  1.0000</r>
       <r>   0.0731  1.0000</r>
       <r>   0.0747  1.0000</r>
       <r>   0.0752  1.0000</r>
       <r>   0.0752  1.0000</r>
       <r>   0.0754  1.0000</r>
       <r>   0.0754  1.0000</r>
       <r>   0.0760  1.0000</r>
       <r>   0.0775  1.0000</r>
       <r>   0.3647  1.0000</r>
       <r>   0.3647  1.0000</r>
       <r>   0.3652  1.0000</r>
       <r>   0.3654  1.0000</r>
       <r>   0.3660  1.0000</r>
       <r>   0.3661  1.0000</r>
       <r>   0.3662  1.0000</r>
       <r>   0.3662  1.0000</r>
       <r>   0.3665  1.0000</r>
       <r>   0.3665  1.0000</r>
       <r>   0.3666  1.0000</r>
       <r>   0.3666  1.0000</r>
       <r>   0.3673  1.0000</r>
       <r>   0.3674  1.0000</r>
       <r>   0.3677  1.0000</r>
       <r>   0.3677  1.0000</r>
       <r>   0.4724  1.0000</r>
       <r>   0.4724  1.0000</r>
       <r>   0.4734  1.0000</r>
       <r>   0.4738  1.0000</r>
       <r>   0.4754  1.0000</r>
       <r>   0.4761  1.0000</r>
       <r>   0.4761  1.0000</r>
       <r>   0.4761  1.0000</r>
       <r>   0.4762  1.0000</r>
       <r>   0.4762  1.0000</r>
       <r>   0.4762  1.0000</r>
       <r>   0.4762  1.0000</r>
       <r>   0.4763  1.0000</r>
       <r>   0.4764  1.0000</r>
       <r>   0.4764  1.0000</r>
       <r>   0.4764  1.0000</r>
       <r>   0.4765  1.0000</r>
       <r>   0.4765  1.0000</r>
       <r>   0.4765  1.0000</r>
       <r>   0.4772  1.0000</r>
       <r>   0.4788  1.0000</r>
       <r>   0.4792  1.0000</r>
       <r>   0.4803  1.0000</r>
       <r>   0.4803  1.0000</r>
       <r>   1.1017  1.0000</r>
       <r>   1.1031  1.0000</r>
       <r>   1.1031  1.0000</r>
       <r>   1.1053  1.0000</r>
       <r>   1.1055  1.0000</r>
       <r>   1.1056  1.0000</r>
       <r>   1.1056  1.0000</r>
       <r>   1.1058  1.0000</r>
       <r>   1.1060  1.0000</r>
       <r>   1.1060  1.0000</r>
       <r>   1.1060  1.0000</r>
       <r>   1.1060  1.0000</r>
       <r>   1.1061  1.0000</r>
       <r>   1.1061  1.0000</r>
       <r>   1.1061  1.0000</r>
       <r>   1.1061  1.0000</r>
       <r>   1.1063  1.0000</r>
       <r>   1.1065  1.0000</r>
       <r>   1.1065  1.0000</r>
       <r>   1.1066  1.0000</r>
       <r>   1.1068  1.0000</r>
       <r>   1.1090  1.0000</r>
       <r>   1.1090  1.0000</r>
       <r>   1.1103  1.0000</r>
       <r>   1.4968  1.0000</r>
       <r>   1.4982  1.0000</r>
       <r>   1.4983  1.0000</r>
       <r>   1.4983  1.0000</r>
       <r>   1.4994  1.0000</r>
       <r>   1.4994  1.0000</r>
       <r>   1.4996  1.0000</r>
       <r>   1.4997  1.0000</r>
       <r>   1.4998  1.0000</r>
       <r>   1.4999  1.0000</r>
       <r>   1.5001  1.0000</r>
       <r>   1.5001  1.0000</r>
       <r>   1.5012  1.0000</r>
       <r>   1.5012  1.0000</r>
       <r>   1.5013  1.0000</r>
       <r>   1.5027  1.0000</r>
       <r>   2.3894  1.0000</r>
       <r>   2.3894  1.0000</r>
       <r>   2.3896  1.0000</r>
       <r>   2.3898  1.0000</r>
       <r>   2.3899  1.0000</r>
       <r>   2.3899  1.0000</r>
       <r>   2.3899  1.0000</r>
       <r>   2.3899  1.0000</r>
       <r>   2.3900  1.0000</r>
       <r>   2.3901  1.0000</r>
       <r>   2.3901  1.0000</r>
       <r>   2.3901  1.0000</r>
       <r>   2.3903  1.0000</r>
       <r>   2.3903  1.0000</r>
       <r>   2.3903  1.0000</r>
       <r>   2.3904  1.0000</r>
       <r>   2.3905  1.0000</r>
       <r>   2.3905  1.0000</r>
       <r>   2.3905  1.0000</r>
       <r>   2.3906  1.0000</r>
       <r>   2.3906  1.0000</r>
       <r>   2.3908  1.0000</r>
       <r>   2.3911  1.0000</r>
       <r>   2.3911  1.0000</r>
       <r>   5.1275  0.0000</r>
       <r>   5.1306  0.0000</r>
       <r>   5.1306  0.0000</r>
       <r>   5.1323  0.0000</r>
       <r>   5.1329  0.0000</r>
       <r>   5.1332  0.0000</r>
       <r>   5.1332  0.0000</r>
       <r>   5.1332  0.0000</r>
       <r>   5.1332  0.0000</r>
       <r>   5.1332  0.0000</r>
       <r>   5.1333  0.0000</r>
       <r>   5.1333  0.0000</r>
       <r>   5.1335  0.0000</r>
       <r>   5.1336  0.0000</r>
       <r>   5.1336  0.0000</r>
       <r>   5.1336  0.0000</r>
       <r>   5.1336  0.0000</r>
       <r>   5.1336  0.0000</r>
       <r>   5.1336  0.0000</r>
       <r>   5.1339  0.0000</r>
       <r>   5.1345  0.0000</r>
       <r>   5.1362  0.0000</r>
       <r>   5.1362  0.0000</r>
       <r>   5.1393  0.0000</r>
       <r>   9.3130  0.0000</r>
       <r>   9.3136  0.0000</r>
       <r>   9.3160  0.0000</r>
       <r>   9.3163  0.0000</r>
       <r>   9.3170  0.0000</r>
       <r>   9.3174  0.0000</r>
       <r>   9.3174  0.0000</r>
       <r>   9.3178  0.0000</r>
       <r>   9.3179  0.0000</r>
       <r>   9.3179  0.0000</r>
       <r>   9.3180  0.0000</r>
       <r>   9.3180  0.0000</r>
       <r>   9.3180  0.0000</r>
       <r>   9.3181  0.0000</r>
       <r>   9.3182  0.0000</r>
       <r>   9.3185  0.0000</r>
       <r>   9.3190  0.0000</r>
       <r>   9.3192  0.0000</r>
       <r>   9.3195  0.0000</r>
       <r>   9.3197  0.0000</r>
      </set>
     </set>
    </set>
   </array>
  </eigenvalues>
 </calculation>
 <structure name="finalpos" >
  <crystal>
   <varray name="basis" >
    <v>       8.51261788      0.00000000      0.00000000</v>
    <v>       0.00000000      8.51261788      0.00000000</v>
    <v>       0.00000000      0.00000000      8.51261788</v>
   </varray>
   <i name="volume">    616.86398753</i>
   <varray name="rec_basis" >
    <v>       0.11747268      0.00000000      0.00000000</v>
    <v>       0.00000000      0.11747268      0.00000000</v>
    <v>       0.00000000      0.00000000      0.11747268</v>
   </varray>
  </crystal>
  <varray name="positions" >
   <v>       0.00117473      0.00000000      0.00000000</v>
   <v>       0.50000000      0.00000000      0.00000000</v>
   <v>       0.00000000      0.50000000      0.00000000</v>
   <v>       0.50000000      0.50000000      0.00000000</v>
   <v>       0.00000000      0.00000000      0.50000000</v>
   <v>       0.50000000      0.00000000      0.50000000</v>
   <v>       0.00000000      0.50000000      0.50000000</v>
   <v>       0.50000000      0.50000000      0.50000000</v>
   <v>       0.25000000      0.25000000      0.00000000</v>
   <v>       0.75000000      0.25000000      0.00000000</v>
   <v>       0.25000000      0.75000000      0.00000000</v>
   <v>       0.75000000      0.75000000      0.00000000</v>
   <v>       0.25000000      0.25000000      0.50000000</v>
   <v>       0.75000000      0.25000000      0.50000000</v>
   <v>       0.25000000      0.75000000      0.50000000</v>
   <v>       0.75000000      0.75000000      0.50000000</v>
   <v>       0.25000000      0.00000000      0.25000000</v>
   <v>       0.75000000      0.00000000      0.25000000</v>
   <v>       0.25000000      0.50000000      0.25000000</v>
   <v>       0.75000000      0.50000000      0.25000000</v>
   <v>       0.25000000      0.00000000      0.75000000</v>
   <v>       0.75000000      0.00000000      0.75000000</v>
   <v>       0.25000000      0.50000000      0.75000000</v>
   <v>       0.75000000      0.50000000      0.75000000</v>
   <v>       0.00000000      0.25000000      0.25000000</v>
   <v>       0.50000000      0.25000000      0.25000000</v>
   <v>       0.00000000      0.75000000      0.25000000</v>
   <v>       0.50000000      0.75000000      0.25000000</v>
   <v>       0.00000000      0.25000000      0.75000000</v>
   <v>       0.50000000      0.25000000      0.75000000</v>
   <v>       0.00000000      0.75000000      0.75000000</v>
   <v>       0.50000000      0.75000000      0.75000000</v>
  </varray>
 </structure>
</modeling>
