32   
1    

1    
  0.0100000000000000   0.0000000000000000   0.0000000000000000
  -0.0366583000   -0.0000000000    0.0000000000
   0.0008751000   -0.0000000000   -0.0000000000
  -0.0003868200   -0.0000000000    0.0000000000
  -0.0003599800    0.0000000000    0.0000000000
  -0.0003868200    0.0000000000   -0.0000000000
  -0.0003599800    0.0000000000   -0.0000000000
  -0.0000609800   -0.0000000000   -0.0000000000
  -0.0001128400   -0.0000000000    0.0000000000
   0.0041782700    0.0045882100    0.0000000000
   0.0040095500   -0.0043681500   -0.0000000000
   0.0041782700   -0.0045882100    0.0000000000
   0.0040095500    0.0043681500   -0.0000000000
   0.0003271000    0.0000598300   -0.0000000000
   0.0003251100   -0.0000567100   -0.0000000000
   0.0003271000   -0.0000598300    0.0000000000
   0.0003251100    0.0000567100   -0.0000000000
   0.0041782700   -0.0000000000    0.0045882100
   0.0040095500   -0.0000000000   -0.0043681500
   0.0003271000    0.0000000000    0.0000598300
   0.0003251100   -0.0000000000   -0.0000567100
   0.0041782700    0.0000000000   -0.0045882100
   0.0040095500   -0.0000000000    0.0043681500
   0.0003271000   -0.0000000000   -0.0000598300
   0.0003251100    0.0000000000    0.0000567100
  -0.0000705700   -0.0000068800   -0.0000068800
   0.0005931900    0.0000031800    0.0000031800
  -0.0000705700    0.0000068800   -0.0000068800
   0.0005931900   -0.0000031800    0.0000031800
  -0.0000705700   -0.0000068800    0.0000068800
   0.0005931900    0.0000031800   -0.0000031800
  -0.0000705700    0.0000068800    0.0000068800
   0.0005931900   -0.0000031800   -0.0000031800
