mesh: [    48,    48,    48 ]
nqpoint: 2600   
reciprocal_lattice:
- [   0.26441928,   0.00000000,   0.00000000 ] # a*
- [   0.00000000,   0.26441928,   0.00000000 ] # b*
- [   0.00000000,   0.00000000,   0.26441928 ] # c*
natom:   4      
lattice:
- [     3.781872444202374,     0.000000000000000,     0.000000000000000 ] # a
- [     0.000000000000000,     3.781872444202374,     0.000000000000000 ] # b
- [     0.000000000000000,     0.000000000000000,     3.781872444202374 ] # c
points:
- symbol: Cu # 1
  coordinates: [  0.000000000000000,  0.000000000000000,  0.000000000000000 ]
  mass: 63.546000
- symbol: Cu # 2
  coordinates: [  0.500000000000000,  0.500000000000000,  0.000000000000000 ]
  mass: 63.546000
- symbol: Cu # 3
  coordinates: [  0.500000000000000,  0.000000000000000,  0.500000000000000 ]
  mass: 63.546000
- symbol: Cu # 4
  coordinates: [  0.000000000000000,  0.500000000000000,  0.500000000000000 ]
  mass: 63.546000
phonon:
- q-position: [    0.0104167,    0.0104167,    0.0104167 ]
  weight: 8    
  band:
  - # 1
    frequency:     0.1028334086
  - # 2
    frequency:     0.1028334086
  - # 3
    frequency:     0.1816253208
  - # 4
    frequency:     3.8981896537
  - # 5
    frequency:     3.8981896537
  - # 6
    frequency:     3.8981896537
  - # 7
    frequency:     3.9001045222
  - # 8
    frequency:     3.9001045222
  - # 9
    frequency:     3.9001045222
  - # 10
    frequency:     5.2138179033
  - # 11
    frequency:     5.2138179033
  - # 12
    frequency:     5.2138179033

- q-position: [    0.0312500,    0.0104167,    0.0104167 ]
  weight: 24   
  band:
  - # 1
    frequency:     0.2023590215
  - # 2
    frequency:     0.2135636462
  - # 3
    frequency:     0.3341619280
  - # 4
    frequency:     3.8943409555
  - # 5
    frequency:     3.8955435140
  - # 6
    frequency:     3.8955435140
  - # 7
    frequency:     3.8962477428
  - # 8
    frequency:     3.9022028000
  - # 9
    frequency:     3.9022028000
  - # 10
    frequency:     5.2097660901
  - # 11
    frequency:     5.2099607040
  - # 12
    frequency:     5.2099607040

- q-position: [    0.0520833,    0.0104167,    0.0104167 ]
  weight: 24   
  band:
  - # 1
    frequency:     0.3304633192
  - # 2
    frequency:     0.3398477585
  - # 3
    frequency:     0.5106921666
  - # 4
    frequency:     3.8866444855
  - # 5
    frequency:     3.8885351741
  - # 6
    frequency:     3.8913926872
  - # 7
    frequency:     3.8913926872
  - # 8
    frequency:     3.9053049125
  - # 9
    frequency:     3.9053049125
  - # 10
    frequency:     5.2016507810
  - # 11
    frequency:     5.2022722642
  - # 12
    frequency:     5.2022722642

- q-position: [    0.0729167,    0.0104167,    0.0104167 ]
  weight: 24   
  band:
  - # 1
    frequency:     0.4615073976
  - # 2
    frequency:     0.4689056408
  - # 3
    frequency:     0.6938101050
  - # 4
    frequency:     3.8751021288
  - # 5
    frequency:     3.8769688266
  - # 6
    frequency:     3.8855217901
  - # 7
    frequency:     3.8855217901
  - # 8
    frequency:     3.9097193401
  - # 9
    frequency:     3.9097193401
  - # 10
    frequency:     5.1894488197
  - # 11
    frequency:     5.1908043326
  - # 12
    frequency:     5.1908043326

- q-position: [    0.0937500,    0.0104167,    0.0104167 ]
  weight: 24   
  band:
  - # 1
    frequency:     0.5925402081
  - # 2
    frequency:     0.5984944730
  - # 3
    frequency:     0.8789065085
  - # 4
    frequency:     3.8597167929
  - # 5
    frequency:     3.8615517916
  - # 6
    frequency:     3.8779290993
  - # 7
    frequency:     3.8779290993
  - # 8
    frequency:     3.9155851564
  - # 9
    frequency:     3.9155851564
  - # 10
    frequency:     5.1731259916
  - # 11
    frequency:     5.1756341102
  - # 12
    frequency:     5.1756341102

- q-position: [    0.1145833,    0.0104167,    0.0104167 ]
  weight: 24   
  band:
  - # 1
    frequency:     0.7229295350
  - # 2
    frequency:     0.7278390337
  - # 3
    frequency:     1.0640965822
  - # 4
    frequency:     3.8404925023
  - # 5
    frequency:     3.8422883308
  - # 6
    frequency:     3.8687017059
  - # 7
    frequency:     3.8687017059
  - # 8
    frequency:     3.9229941462
  - # 9
    frequency:     3.9229941462
  - # 10
    frequency:     5.1526376372
  - # 11
    frequency:     5.1568637405
  - # 12
    frequency:     5.1568637405

- q-position: [    0.1354167,    0.0104167,    0.0104167 ]
  weight: 24   
  band:
  - # 1
    frequency:     0.8524062027
  - # 2
    frequency:     0.8565331727
  - # 3
    frequency:     1.2483729012
  - # 4
    frequency:     3.8174345233
  - # 5
    frequency:     3.8191839950
  - # 6
    frequency:     3.8579731963
  - # 7
    frequency:     3.8579731963
  - # 8
    frequency:     3.9320295325
  - # 9
    frequency:     3.9320295325
  - # 10
    frequency:     5.1279294539
  - # 11
    frequency:     5.1346196283
  - # 12
    frequency:     5.1346196283

- q-position: [    0.1562500,    0.0104167,    0.0104167 ]
  weight: 24   
  band:
  - # 1
    frequency:     0.9807804805
  - # 2
    frequency:     0.9842994992
  - # 3
    frequency:     1.4310775238
  - # 4
    frequency:     3.7905495161
  - # 5
    frequency:     3.7922457680
  - # 6
    frequency:     3.8459094530
  - # 7
    frequency:     3.8459094530
  - # 8
    frequency:     3.9427757633
  - # 9
    frequency:     3.9427757633
  - # 10
    frequency:     5.0989384724
  - # 11
    frequency:     5.1090515809
  - # 12
    frequency:     5.1090515809

- q-position: [    0.1770833,    0.0104167,    0.0104167 ]
  weight: 24   
  band:
  - # 1
    frequency:     1.1078852699
  - # 2
    frequency:     1.1109163645
  - # 3
    frequency:     1.6117159130
  - # 4
    frequency:     3.7598457138
  - # 5
    frequency:     3.7614822381
  - # 6
    frequency:     3.8327023367
  - # 7
    frequency:     3.8327023367
  - # 8
    frequency:     3.9553196474
  - # 9
    frequency:     3.9553196474
  - # 10
    frequency:     5.0655941914
  - # 11
    frequency:     5.0803317717
  - # 12
    frequency:     5.0803317717

- q-position: [    0.1979167,    0.0104167,    0.0104167 ]
  weight: 24   
  band:
  - # 1
    frequency:     1.2335622784
  - # 2
    frequency:     1.2361906892
  - # 3
    frequency:     1.7898813296
  - # 4
    frequency:     3.7253331241
  - # 5
    frequency:     3.7269037909
  - # 6
    frequency:     3.8185655667
  - # 7
    frequency:     3.8185655667
  - # 8
    frequency:     3.9697485957
  - # 9
    frequency:     3.9697485957
  - # 10
    frequency:     5.0278198525
  - # 11
    frequency:     5.0486535211
  - # 12
    frequency:     5.0486535211

- q-position: [    0.2187500,    0.0104167,    0.0104167 ]
  weight: 24   
  band:
  - # 1
    frequency:     1.3576583688
  - # 2
    frequency:     1.3599463918
  - # 3
    frequency:     1.9652207813
  - # 4
    frequency:     3.6870237538
  - # 5
    frequency:     3.6885228240
  - # 6
    frequency:     3.8037311106
  - # 7
    frequency:     3.8037311106
  - # 8
    frequency:     3.9861477373
  - # 9
    frequency:     3.9861477373
  - # 10
    frequency:     4.9855338353
  - # 11
    frequency:     5.0142298916
  - # 12
    frequency:     5.0142298916

- q-position: [    0.2395833,    0.0104167,    0.0104167 ]
  weight: 24   
  band:
  - # 1
    frequency:     1.4800246968
  - # 2
    frequency:     1.4820189866
  - # 3
    frequency:     2.1374185073
  - # 4
    frequency:     3.6449318498
  - # 5
    frequency:     3.6463539802
  - # 6
    frequency:     3.7884455360
  - # 7
    frequency:     3.7884455360
  - # 8
    frequency:     4.0045965615
  - # 9
    frequency:     4.0045965615
  - # 10
    frequency:     4.9386511510
  - # 11
    frequency:     4.9772920946
  - # 12
    frequency:     4.9772920946

- q-position: [    0.2604167,    0.0104167,    0.0104167 ]
  weight: 24   
  band:
  - # 1
    frequency:     1.6005166801
  - # 2
    frequency:     1.6022529044
  - # 3
    frequency:     2.3061875503
  - # 4
    frequency:     3.5990741573
  - # 5
    frequency:     3.6004143953
  - # 6
    frequency:     3.7729661318
  - # 7
    frequency:     3.7729661318
  - # 8
    frequency:     4.0251653927
  - # 9
    frequency:     4.0251653927
  - # 10
    frequency:     4.8870850122
  - # 11
    frequency:     4.9380877072
  - # 12
    frequency:     4.9380877072

- q-position: [    0.2812500,    0.0104167,    0.0104167 ]
  weight: 24   
  band:
  - # 1
    frequency:     1.7189942135
  - # 2
    frequency:     1.7205001179
  - # 3
    frequency:     2.4712653236
  - # 4
    frequency:     3.5494701887
  - # 5
    frequency:     3.5507239595
  - # 6
    frequency:     3.7575567448
  - # 7
    frequency:     3.7575567448
  - # 8
    frequency:     4.0479118868
  - # 9
    frequency:     4.0479118868
  - # 10
    frequency:     4.8307484573
  - # 11
    frequency:     4.8968786980
  - # 12
    frequency:     4.8968786980

- q-position: [    0.3020833,    0.0104167,    0.0104167 ]
  weight: 24   
  band:
  - # 1
    frequency:     1.8353219426
  - # 2
    frequency:     1.8366194287
  - # 3
    frequency:     2.6324112529
  - # 4
    frequency:     3.4961425019
  - # 5
    frequency:     3.4973055875
  - # 6
    frequency:     3.7424833354
  - # 7
    frequency:     3.7424833354
  - # 8
    frequency:     4.0728776923
  - # 9
    frequency:     4.0728776923
  - # 10
    frequency:     4.7695560064
  - # 11
    frequency:     4.8539392640
  - # 12
    frequency:     4.8539392640

- q-position: [    0.3229167,    0.0104167,    0.0104167 ]
  weight: 24   
  band:
  - # 1
    frequency:     1.9493695317
  - # 2
    frequency:     1.9504761052
  - # 3
    frequency:     2.7894055299
  - # 4
    frequency:     3.4391169838
  - # 5
    frequency:     3.4401854935
  - # 6
    frequency:     3.7280092947
  - # 7
    frequency:     3.7280092947
  - # 8
    frequency:     4.1000853931
  - # 9
    frequency:     4.1000853931
  - # 10
    frequency:     4.7034253269
  - # 11
    frequency:     4.8095534834
  - # 12
    frequency:     4.8095534834

- q-position: [    0.3437500,    0.0104167,    0.0104167 ]
  weight: 24   
  band:
  - # 1
    frequency:     2.0610119023
  - # 2
    frequency:     2.0619417078
  - # 3
    frequency:     2.9420484664
  - # 4
    frequency:     3.3784231353
  - # 5
    frequency:     3.3793934705
  - # 6
    frequency:     3.7143905916
  - # 7
    frequency:     3.7143905916
  - # 8
    frequency:     4.1295358344
  - # 9
    frequency:     4.1295358344
  - # 10
    frequency:     4.6322788887
  - # 11
    frequency:     4.7640127935
  - # 12
    frequency:     4.7640127935

- q-position: [    0.3645833,    0.0104167,    0.0104167 ]
  weight: 24   
  band:
  - # 1
    frequency:     2.1701294366
  - # 2
    frequency:     2.1708940130
  - # 3
    frequency:     3.0901601638
  - # 4
    frequency:     3.3140943551
  - # 5
    frequency:     3.3149631660
  - # 6
    frequency:     3.7018708425
  - # 7
    frequency:     3.7018708425
  - # 8
    frequency:     4.1612059118
  - # 9
    frequency:     4.1612059118
  - # 10
    frequency:     4.5560455885
  - # 11
    frequency:     4.7176133094
  - # 12
    frequency:     4.7176133094

- q-position: [    0.3854167,    0.0104167,    0.0104167 ]
  weight: 24   
  band:
  - # 1
    frequency:     2.2766081414
  - # 2
    frequency:     2.2772169872
  - # 3
    frequency:     3.2335803301
  - # 4
    frequency:     3.2461682180
  - # 5
    frequency:     3.2469323550
  - # 6
    frequency:     3.6906764168
  - # 7
    frequency:     3.6906764168
  - # 8
    frequency:     4.1950468823
  - # 9
    frequency:     4.1950468823
  - # 10
    frequency:     4.4746623255
  - # 11
    frequency:     4.6706530069
  - # 12
    frequency:     4.6706530069

- q-position: [    0.4062500,    0.0104167,    0.0104167 ]
  weight: 24   
  band:
  - # 1
    frequency:     2.3803397742
  - # 2
    frequency:     2.3808007772
  - # 3
    frequency:     3.1746867451
  - # 4
    frequency:     3.1753432033
  - # 5
    frequency:     3.3721681450
  - # 6
    frequency:     3.6810117072
  - # 7
    frequency:     3.6810117072
  - # 8
    frequency:     4.2309832257
  - # 9
    frequency:     4.2309832257
  - # 10
    frequency:     4.3880755123
  - # 11
    frequency:     4.6234288103
  - # 12
    frequency:     4.6234288103

- q-position: [    0.4270833,    0.0104167,    0.0104167 ]
  weight: 24   
  band:
  - # 1
    frequency:     2.4812219309
  - # 2
    frequency:     2.4815417025
  - # 3
    frequency:     3.0996966618
  - # 4
    frequency:     3.1002425194
  - # 5
    frequency:     3.5058021081
  - # 6
    frequency:     3.6730547065
  - # 7
    frequency:     3.6730547065
  - # 8
    frequency:     4.2689120236
  - # 9
    frequency:     4.2689120236
  - # 10
    frequency:     4.2962425055
  - # 11
    frequency:     4.5762336704
  - # 12
    frequency:     4.5762336704

- q-position: [    0.4479167,    0.0104167,    0.0104167 ]
  weight: 24   
  band:
  - # 1
    frequency:     2.5791580960
  - # 2
    frequency:     2.5793422360
  - # 3
    frequency:     3.0212496420
  - # 4
    frequency:     3.0216819920
  - # 5
    frequency:     3.6343798297
  - # 6
    frequency:     3.6669530344
  - # 7
    frequency:     3.6669530344
  - # 8
    frequency:     4.1991329436
  - # 9
    frequency:     4.3087026444
  - # 10
    frequency:     4.3087026444
  - # 11
    frequency:     4.5293538852
  - # 12
    frequency:     4.5293538852

- q-position: [    0.4687500,    0.0104167,    0.0104167 ]
  weight: 24   
  band:
  - # 1
    frequency:     2.6740576558
  - # 2
    frequency:     2.6741109662
  - # 3
    frequency:     2.9394025341
  - # 4
    frequency:     2.9397184083
  - # 5
    frequency:     3.6628205561
  - # 6
    frequency:     3.6628205561
  - # 7
    frequency:     3.7578177374
  - # 8
    frequency:     4.0967299817
  - # 9
    frequency:     4.3501953546
  - # 10
    frequency:     4.3501953546
  - # 11
    frequency:     4.4830680699
  - # 12
    frequency:     4.4830680699

- q-position: [    0.4895833,    0.0104167,    0.0104167 ]
  weight: 24   
  band:
  - # 1
    frequency:     2.7657625379
  - # 2
    frequency:     2.7658358773
  - # 3
    frequency:     2.8542175677
  - # 4
    frequency:     2.8544138521
  - # 5
    frequency:     3.6607347202
  - # 6
    frequency:     3.6607347202
  - # 7
    frequency:     3.8760506792
  - # 8
    frequency:     3.9890314145
  - # 9
    frequency:     4.3931758487
  - # 10
    frequency:     4.3931758487
  - # 11
    frequency:     4.4376708024
  - # 12
    frequency:     4.4376708024

- q-position: [    0.0312500,    0.0312500,    0.0104167 ]
  weight: 24   
  band:
  - # 1
    frequency:     0.2446959326
  - # 2
    frequency:     0.2816201981
  - # 3
    frequency:     0.4502268282
  - # 4
    frequency:     3.8900030088
  - # 5
    frequency:     3.8916924827
  - # 6
    frequency:     3.8916924827
  - # 7
    frequency:     3.8983406144
  - # 8
    frequency:     3.8983406144
  - # 9
    frequency:     3.9071899705
  - # 10
    frequency:     5.2059486586
  - # 11
    frequency:     5.2059486586
  - # 12
    frequency:     5.2061082067

- q-position: [    0.0520833,    0.0312500,    0.0104167 ]
  weight: 48   
  band:
  - # 1
    frequency:     0.3419780088
  - # 2
    frequency:     0.3859687882
  - # 3
    frequency:     0.6020142553
  - # 4
    frequency:     3.8833899574
  - # 5
    frequency:     3.8839912698
  - # 6
    frequency:     3.8875211525
  - # 7
    frequency:     3.8906175570
  - # 8
    frequency:     3.9014475022
  - # 9
    frequency:     3.9127432200
  - # 10
    frequency:     5.1979126999
  - # 11
    frequency:     5.1983396443
  - # 12
    frequency:     5.1984291112

- q-position: [    0.0729167,    0.0312500,    0.0104167 ]
  weight: 48   
  band:
  - # 1
    frequency:     0.4617461034
  - # 2
    frequency:     0.5031057157
  - # 3
    frequency:     0.7677861551
  - # 4
    frequency:     3.8724416062
  - # 5
    frequency:     3.8757089393
  - # 6
    frequency:     3.8790362802
  - # 7
    frequency:     3.8816127902
  - # 8
    frequency:     3.9058751855
  - # 9
    frequency:     3.9189507876
  - # 10
    frequency:     5.1858293087
  - # 11
    frequency:     5.1869750477
  - # 12
    frequency:     5.1869905750

- q-position: [    0.0937500,    0.0312500,    0.0104167 ]
  weight: 48   
  band:
  - # 1
    frequency:     0.5885593072
  - # 2
    frequency:     0.6254213488
  - # 3
    frequency:     0.9402954708
  - # 4
    frequency:     3.8570461677
  - # 5
    frequency:     3.8636008229
  - # 6
    frequency:     3.8668455899
  - # 7
    frequency:     3.8739668400
  - # 8
    frequency:     3.9117608448
  - # 9
    frequency:     3.9260639851
  - # 10
    frequency:     5.1696637433
  - # 11
    frequency:     5.1718230404
  - # 12
    frequency:     5.1719783176

- q-position: [    0.1145833,    0.0312500,    0.0104167 ]
  weight: 48   
  band:
  - # 1
    frequency:     0.7173617558
  - # 2
    frequency:     0.7499060103
  - # 3
    frequency:     1.1160614036
  - # 4
    frequency:     3.8378086687
  - # 5
    frequency:     3.8443166834
  - # 6
    frequency:     3.8567532969
  - # 7
    frequency:     3.8646706550
  - # 8
    frequency:     3.9191950618
  - # 9
    frequency:     3.9343077886
  - # 10
    frequency:     5.1493706741
  - # 11
    frequency:     5.1530750005
  - # 12
    frequency:     5.1534045667

- q-position: [    0.1354167,    0.0312500,    0.0104167 ]
  weight: 48   
  band:
  - # 1
    frequency:     0.8463059594
  - # 2
    frequency:     0.8751296746
  - # 3
    frequency:     1.2930721780
  - # 4
    frequency:     3.8147339876
  - # 5
    frequency:     3.8211909138
  - # 6
    frequency:     3.8454582036
  - # 7
    frequency:     3.8538575623
  - # 8
    frequency:     3.9282601854
  - # 9
    frequency:     3.9438722643
  - # 10
    frequency:     5.1248950112
  - # 11
    frequency:     5.1308570461
  - # 12
    frequency:     5.1313951587

- q-position: [    0.1562500,    0.0312500,    0.0104167 ]
  weight: 48   
  band:
  - # 1
    frequency:     0.9745893705
  - # 2
    frequency:     1.0002924708
  - # 3
    frequency:     1.4700245794
  - # 4
    frequency:     3.7878283209
  - # 5
    frequency:     3.7942322379
  - # 6
    frequency:     3.8330478704
  - # 7
    frequency:     3.8416929173
  - # 8
    frequency:     3.9390398919
  - # 9
    frequency:     3.9549195167
  - # 10
    frequency:     5.0961729112
  - # 11
    frequency:     5.1053186478
  - # 12
    frequency:     5.1060992097

- q-position: [    0.1770833,    0.0312500,    0.0104167 ]
  weight: 48   
  band:
  - # 1
    frequency:     1.1017889297
  - # 2
    frequency:     1.1248814970
  - # 3
    frequency:     1.6460001630
  - # 4
    frequency:     3.7570993668
  - # 5
    frequency:     3.7634511874
  - # 6
    frequency:     3.8196588120
  - # 7
    frequency:     3.8283679139
  - # 8
    frequency:     3.9516202281
  - # 9
    frequency:     3.9675909962
  - # 10
    frequency:     5.0631329468
  - # 11
    frequency:     5.0766315959
  - # 12
    frequency:     5.0776880739

- q-position: [    0.1979167,    0.0312500,    0.0104167 ]
  weight: 48   
  band:
  - # 1
    frequency:     1.2276337094
  - # 2
    frequency:     1.2485295531
  - # 3
    frequency:     1.8203067815
  - # 4
    frequency:     3.7225565354
  - # 5
    frequency:     3.7288602588
  - # 6
    frequency:     3.8054658019
  - # 7
    frequency:     3.8140955365
  - # 8
    frequency:     3.9660878193
  - # 9
    frequency:     3.9820123394
  - # 10
    frequency:     5.0256974178
  - # 11
    frequency:     5.0449887864
  - # 12
    frequency:     5.0463541190

- q-position: [    0.2187500,    0.0312500,    0.0104167 ]
  weight: 48   
  band:
  - # 1
    frequency:     1.3519195314
  - # 2
    frequency:     1.3709505046
  - # 3
    frequency:     1.9923944249
  - # 4
    frequency:     3.6842111860
  - # 5
    frequency:     3.6904740850
  - # 6
    frequency:     3.7906731256
  - # 7
    frequency:     3.7991070022
  - # 8
    frequency:     3.9825269767
  - # 9
    frequency:     3.9982956467
  - # 10
    frequency:     4.9837837857
  - # 11
    frequency:     5.0106028227
  - # 12
    frequency:     5.0123093162

- q-position: [    0.2395833,    0.0312500,    0.0104167 ]
  weight: 48   
  band:
  - # 1
    frequency:     1.4744743927
  - # 2
    frequency:     1.4919071154
  - # 3
    frequency:     2.1618080290
  - # 4
    frequency:     3.6420768866
  - # 5
    frequency:     3.6483096221
  - # 6
    frequency:     3.7755072918
  - # 7
    frequency:     3.7836481572
  - # 8
    frequency:     4.0010163429
  - # 9
    frequency:     4.0165397849
  - # 10
    frequency:     4.9373062054
  - # 11
    frequency:     4.9737044307
  - # 12
    frequency:     4.9757836422

- q-position: [    0.2604167,    0.0312500,    0.0104167 ]
  weight: 48   
  band:
  - # 1
    frequency:     1.5951436455
  - # 2
    frequency:     1.6111939311
  - # 3
    frequency:     2.3281599184
  - # 4
    frequency:     3.5961696947
  - # 5
    frequency:     3.6023863494
  - # 6
    frequency:     3.7602106746
  - # 7
    frequency:     3.7679756420
  - # 8
    frequency:     4.0216253723
  - # 9
    frequency:     4.0368293575
  - # 10
    frequency:     4.8861771356
  - # 11
    frequency:     4.9345406867
  - # 12
    frequency:     4.9370232917

- q-position: [    0.2812500,    0.0312500,    0.0104167 ]
  weight: 48   
  band:
  - # 1
    frequency:     1.7137833942
  - # 2
    frequency:     1.7286276684
  - # 3
    frequency:     2.4911131872
  - # 4
    frequency:     3.5465084544
  - # 5
    frequency:     3.5527264794
  - # 6
    frequency:     3.7450356827
  - # 7
    frequency:     3.7523527704
  - # 8
    frequency:     4.0444108357
  - # 9
    frequency:     4.0592328774
  - # 10
    frequency:     4.8303090020
  - # 11
    frequency:     4.8933730570
  - # 12
    frequency:     4.8962887018

- q-position: [    0.3020833,    0.0312500,    0.0104167 ]
  weight: 48   
  band:
  - # 1
    frequency:     1.8302574986
  - # 2
    frequency:     1.8440415789
  - # 3
    frequency:     2.6503714034
  - # 4
    frequency:     3.4931151037
  - # 5
    frequency:     3.4993551802
  - # 6
    frequency:     3.7302391990
  - # 7
    frequency:     3.7370451289
  - # 8
    frequency:     4.0694134838
  - # 9
    frequency:     4.0838005443
  - # 10
    frequency:     4.7696158919
  - # 11
    frequency:     4.8504752553
  - # 12
    frequency:     4.8538523919

- q-position: [    0.3229167,    0.0312500,    0.0104167 ]
  weight: 48   
  band:
  - # 1
    frequency:     1.9444362272
  - # 2
    frequency:     1.9572820240
  - # 3
    frequency:     2.8056720783
  - # 4
    frequency:     3.4360149860
  - # 5
    frequency:     3.4423008089
  - # 6
    frequency:     3.7160771477
  - # 7
    frequency:     3.7223159351
  - # 8
    frequency:     4.0966549876
  - # 9
    frequency:     4.1105619237
  - # 10
    frequency:     4.7040152589
  - # 11
    frequency:     4.8061309263
  - # 12
    frequency:     4.8099966282

- q-position: [    0.3437500,    0.0312500,    0.0104167 ]
  weight: 48   
  band:
  - # 1
    frequency:     2.0561956826
  - # 2
    frequency:     2.0682063269
  - # 3
    frequency:     2.9567824288
  - # 4
    frequency:     3.3752371585
  - # 5
    frequency:     3.3815951570
  - # 6
    frequency:     3.7027991378
  - # 7
    frequency:     3.7084212249
  - # 8
    frequency:     4.1261352435
  - # 9
    frequency:     4.1395237413
  - # 10
    frequency:     4.6334296174
  - # 11
    frequency:     4.7606311726
  - # 12
    frequency:     4.7650109300

- q-position: [    0.3645833,    0.0312500,    0.0104167 ]
  weight: 48   
  band:
  - # 1
    frequency:     2.1654175919
  - # 2
    frequency:     2.1766813891
  - # 3
    frequency:     3.1034965586
  - # 4
    frequency:     3.3108146879
  - # 5
    frequency:     3.3172737104
  - # 6
    frequency:     3.6906431947
  - # 7
    frequency:     3.6956049589
  - # 8
    frequency:     4.1578301101
  - # 9
    frequency:     4.1706679343
  - # 10
    frequency:     4.5577882069
  - # 11
    frequency:     4.7142719610
  - # 12
    frequency:     4.7191894487

- q-position: [    0.3854167,    0.0312500,    0.0104167 ]
  weight: 48   
  band:
  - # 1
    frequency:     2.2719892626
  - # 2
    frequency:     2.2825827703
  - # 3
    frequency:     3.2427849295
  - # 4
    frequency:     3.2456335195
  - # 5
    frequency:     3.2493759216
  - # 6
    frequency:     3.6798306419
  - # 7
    frequency:     3.6840941583
  - # 8
    frequency:     4.1916895933
  - # 9
    frequency:     4.2039500216
  - # 10
    frequency:     4.4770286109
  - # 11
    frequency:     4.6673514814
  - # 12
    frequency:     4.6728282855

- q-position: [    0.4062500,    0.0312500,    0.0104167 ]
  weight: 48   
  band:
  - # 1
    frequency:     2.3758036080
  - # 2
    frequency:     2.3857940572
  - # 3
    frequency:     3.1711897824
  - # 4
    frequency:     3.1779454951
  - # 5
    frequency:     3.3830359173
  - # 6
    frequency:     3.6705612272
  - # 7
    frequency:     3.6740941998
  - # 8
    frequency:     4.2276363992
  - # 9
    frequency:     4.2392977173
  - # 10
    frequency:     4.3910983141
  - # 11
    frequency:     4.6201676371
  - # 12
    frequency:     4.6262228967

- q-position: [    0.4270833,    0.0312500,    0.0104167 ]
  weight: 48   
  band:
  - # 1
    frequency:     2.4767591908
  - # 2
    frequency:     2.4862064092
  - # 3
    frequency:     3.0960759181
  - # 4
    frequency:     3.1030306805
  - # 5
    frequency:     3.5155688437
  - # 6
    frequency:     3.6630086112
  - # 7
    frequency:     3.6657844089
  - # 8
    frequency:     4.2655644754
  - # 9
    frequency:     4.2766093156
  - # 10
    frequency:     4.2999561856
  - # 11
    frequency:     4.5730162167
  - # 12
    frequency:     4.5796660179

- q-position: [    0.4479167,    0.0312500,    0.0104167 ]
  weight: 48   
  band:
  - # 1
    frequency:     2.5747602598
  - # 2
    frequency:     2.5837182115
  - # 3
    frequency:     3.0174949836
  - # 4
    frequency:     3.0246845702
  - # 5
    frequency:     3.6431189906
  - # 6
    frequency:     3.6573163473
  - # 7
    frequency:     3.6593140944
  - # 8
    frequency:     4.2035738779
  - # 9
    frequency:     4.3053359177
  - # 10
    frequency:     4.3157496271
  - # 11
    frequency:     4.5261920256
  - # 12
    frequency:     4.5334477732

- q-position: [    0.4687500,    0.0312500,    0.0104167 ]
  weight: 48   
  band:
  - # 1
    frequency:     2.6697167693
  - # 2
    frequency:     2.6782347915
  - # 3
    frequency:     2.9355037766
  - # 4
    frequency:     2.9429653941
  - # 5
    frequency:     3.6535944813
  - # 6
    frequency:     3.6547991657
  - # 7
    frequency:     3.7655938514
  - # 8
    frequency:     4.1019371350
  - # 9
    frequency:     4.3467665220
  - # 10
    frequency:     4.3565285130
  - # 11
    frequency:     4.4800079664
  - # 12
    frequency:     4.4878677142

- q-position: [    0.4895833,    0.0312500,    0.0104167 ]
  weight: 48   
  band:
  - # 1
    frequency:     2.7615443736
  - # 2
    frequency:     2.7696681671
  - # 3
    frequency:     2.8501643969
  - # 4
    frequency:     2.8579368077
  - # 5
    frequency:     3.6519168908
  - # 6
    frequency:     3.6523194606
  - # 7
    frequency:     3.8829209426
  - # 8
    frequency:     3.9950470026
  - # 9
    frequency:     4.3894639113
  - # 10
    frequency:     4.3983603745
  - # 11
    frequency:     4.4351337418
  - # 12
    frequency:     4.4433948788

- q-position: [    0.0520833,    0.0520833,    0.0104167 ]
  weight: 24   
  band:
  - # 1
    frequency:     0.3971786806
  - # 2
    frequency:     0.4672742877
  - # 3
    frequency:     0.7328252346
  - # 4
    frequency:     3.8737846080
  - # 5
    frequency:     3.8797789766
  - # 6
    frequency:     3.8797789766
  - # 7
    frequency:     3.8937344700
  - # 8
    frequency:     3.8937344700
  - # 9
    frequency:     3.9212663084
  - # 10
    frequency:     5.1904621443
  - # 11
    frequency:     5.1904621443
  - # 12
    frequency:     5.1907685856

- q-position: [    0.0729167,    0.0520833,    0.0104167 ]
  weight: 48   
  band:
  - # 1
    frequency:     0.4887477147
  - # 2
    frequency:     0.5675200069
  - # 3
    frequency:     0.8815705968
  - # 4
    frequency:     3.8632886217
  - # 5
    frequency:     3.8681679924
  - # 6
    frequency:     3.8737960940
  - # 7
    frequency:     3.8821693883
  - # 8
    frequency:     3.8981890914
  - # 9
    frequency:     3.9302544578
  - # 10
    frequency:     5.1786154753
  - # 11
    frequency:     5.1793420810
  - # 12
    frequency:     5.1793501553

- q-position: [    0.0937500,    0.0520833,    0.0104167 ]
  weight: 48   
  band:
  - # 1
    frequency:     0.5995821132
  - # 2
    frequency:     0.6779220842
  - # 3
    frequency:     1.0400163170
  - # 4
    frequency:     3.8519519534
  - # 5
    frequency:     3.8526910650
  - # 6
    frequency:     3.8660444688
  - # 7
    frequency:     3.8667576072
  - # 8
    frequency:     3.9041148218
  - # 9
    frequency:     3.9397938548
  - # 10
    frequency:     5.1627637788
  - # 11
    frequency:     5.1642262700
  - # 12
    frequency:     5.1646528647

- q-position: [    0.1145833,    0.0520833,    0.0104167 ]
  weight: 48   
  band:
  - # 1
    frequency:     0.7194802450
  - # 2
    frequency:     0.7938030383
  - # 3
    frequency:     1.2040320580
  - # 4
    frequency:     3.8333522254
  - # 5
    frequency:     3.8397747316
  - # 6
    frequency:     3.8475062490
  - # 7
    frequency:     3.8566120399
  - # 8
    frequency:     3.9115998740
  - # 9
    frequency:     3.9500617121
  - # 10
    frequency:     5.1428603033
  - # 11
    frequency:     5.1455226002
  - # 12
    frequency:     5.1464709765

- q-position: [    0.1354167,    0.0520833,    0.0104167 ]
  weight: 48   
  band:
  - # 1
    frequency:     0.8433856399
  - # 2