32   
1    

1    
  0.0100000000000000   0.0000000000000000   0.0000000000000000
  -0.0837396100   -0.0000000000   -0.0000000000
   0.0037739300   -0.0000000000   -0.0000000000
  -0.0002822000    0.0000000000   -0.0000000000
   0.0003747300    0.0000000000    0.0000000000
  -0.0002822000   -0.0000000000    0.0000000000
   0.0003747300   -0.0000000000    0.0000000000
   0.0002703700   -0.0000000000   -0.0000000000
  -0.0011650100   -0.0000000000    0.0000000000
  -0.0017972000    0.0000390400   -0.0000390400
  -0.0003241400   -0.0000029300    0.0000029300
  -0.0017972000   -0.0000390400   -0.0000390400
  -0.0003241400    0.0000029300    0.0000029300
  -0.0017972000    0.0000390400    0.0000390400
  -0.0003241400   -0.0000029300   -0.0000029300
  -0.0017972000   -0.0000390400    0.0000390400
  -0.0003241400    0.0000029300   -0.0000029300
   0.0106425200   -0.0000000000   -0.0120460300
   0.0108724400    0.0000000000    0.0123761700
   0.0003862200    0.0000000000    0.0000465900
   0.0003889700    0.0000000000   -0.0000377400
   0.0106425200    0.0000000000    0.0120460300
   0.0108724400   -0.0000000000   -0.0123761700
   0.0003862200    0.0000000000   -0.0000465900
   0.0003889700   -0.0000000000    0.0000377400
   0.0106425200    0.0120460300   -0.0000000000
   0.0108724400   -0.0123761700    0.0000000000
   0.0106425200   -0.0120460300    0.0000000000
   0.0108724400    0.0123761700   -0.0000000000
   0.0003862200   -0.0000465900   -0.0000000000
   0.0003889700    0.0000377400   -0.0000000000
   0.0003862200    0.0000465900   -0.0000000000
   0.0003889700   -0.0000377400    0.0000000000
