 running on    4 nodes
 distr:  one band on    1 nodes,    4 groups
 vasp.4.6.28 25Jul05 complex 
 POSCAR found :  1 types and   32 ions

 ----------------------------------------------------------------------------- 
|                                                                             |
|  ADVICE TO THIS USER RUNNING 'VASP/VAMP'   (HEAR YOUR MASTER'S VOICE ...):  |
|                                                                             |
|      You have a (more or less) 'large supercell' and for larger cells       |
|      it might be more efficient to use real space projection operators      |
|      So try LREAL= Auto  in the INCAR   file.                               |
|      Mind: If you want to do an extremely accurate calculations keep the    |
|      reciprocal projection scheme          (i.e. LREAL=.FALSE.)             |
|                                                                             |
 ----------------------------------------------------------------------------- 

 LDA part: xc-table for Pade appr. of Perdew
 POSCAR, INCAR and KPOINTS ok, starting setup
 FFT: planning ...           1
 reading WAVECAR
 WARNING: random wavefunctions but no delay for mixing, default for NELMDL
 entering main loop
       N       E                     dE             d eps       ncg     rms          rms(c)
DAV:   1     0.163438151433E+03    0.16344E+03   -0.40859E+04 26656   0.150E+03
DAV:   2    -0.100556422965E+03   -0.26399E+03   -0.24675E+03 31012   0.157E+02
DAV:   3    -0.117727708613E+03   -0.17171E+02   -0.16150E+02 33440   0.302E+01
DAV:   4    -0.118171003055E+03   -0.44329E+00   -0.43765E+00 31624   0.493E+00
DAV:   5    -0.118176838586E+03   -0.58355E-02   -0.58247E-02 31636   0.701E-01    0.494E+00
DAV:   6    -0.117789737098E+03    0.38710E+00   -0.72221E-02 30860   0.879E-01    0.306E+00
DAV:   7    -0.117511311837E+03    0.27843E+00   -0.20722E-01 29656   0.141E+00    0.136E-01
DAV:   8    -0.117511163770E+03    0.14807E-03   -0.16011E-03 31876   0.148E-01    0.399E-02
DAV:   9    -0.117511179182E+03   -0.15412E-04   -0.51714E-05 31564   0.213E-02    0.317E-03
DAV:  10    -0.117511176979E+03    0.22024E-05   -0.17193E-06 32172   0.441E-03    0.180E-03
DAV:  11    -0.117511173412E+03    0.35676E-05   -0.13644E-07 31452   0.111E-03    0.619E-04
DAV:  12    -0.117511172396E+03    0.10156E-05   -0.19453E-08 20304   0.423E-04    0.881E-05
DAV:  13    -0.117511172330E+03    0.66049E-07   -0.30773E-09 17540   0.189E-04    0.307E-05
DAV:  14    -0.117511172343E+03   -0.13516E-07   -0.43247E-10 17024   0.764E-05    0.101E-05
DAV:  15    -0.117511172366E+03   -0.22615E-07   -0.10384E-10 16812   0.406E-05    0.471E-06
DAV:  16    -0.117511172369E+03   -0.34943E-08   -0.57663E-12 16536   0.188E-05
   1 F= -.11751117E+03 E0= -.11751097E+03  d E =-.404925E-03
