   32   32    1    1
  0.1904509E+02  0.8478343E-09  0.8478343E-09  0.8478343E-09  0.5000000E-15
  1.000000000000000E-004
  CAR 
 unknown system                          
   96  196   68
 
  0.0000000E+00  0.0000000E+00  0.0000000E+00  0.5787037E-03
   1       -3.5983
   2       -1.5556
   3       -1.5521
   4       -1.5521
   5       -1.5521
   6       -1.5521
   7       -1.5487
   8        0.4622
   9        0.4665
  10        0.4665
  11        0.4680
  12        0.4681
  13        0.4681
  14        0.4681
  15        0.4681
  16        0.4682
  17        0.4697
  18        0.4697
  19        0.4741
  20        2.3830
  21        2.3830
  22        2.3830
  23        2.3830
  24        2.5471
  25        2.5471
  26        2.5471
  27        2.5471
  28        4.0040
  29        4.0040
  30        4.0041
  31        4.9681
  32        4.9682
  33        4.9682
  34        5.9140
  35        5.9140
  36        5.9179
  37        5.9179
  38        5.9180
  39        5.9180
  40        5.9180
  41        5.9181
  42        5.9181
  43        5.9181
  44        5.9221
  45        5.9221
  46        6.9389
  47        6.9397
  48        6.9398
  49        6.9398
  50        6.9398
  51        6.9406
  52        6.9843
  53        6.9881
  54        6.9881
  55        6.9881
  56        6.9881
  57        6.9918
  58        7.8289
  59        7.8294
  60        7.8308
  61        7.8327
  62        7.8328
  63        7.8328
  64        7.8328
  65        7.8329
  66        7.8347
  67        7.8362
  68        7.8366
 
  0.8333333E-01  0.0000000E+00  0.0000000E+00  0.1157407E-02
   1       -3.5841
   2       -1.8772
   3       -1.5380
   4       -1.5380
   5       -1.5380
   6       -1.5380
   7       -1.1995
   8        0.1471
   9        0.1471
  10        0.1471
  11        0.1471
  12        0.4820
  13        0.4820
  14        0.4820
  15        0.4820
  16        0.8163
  17        0.8163
  18        0.8163
  19        0.8163
  20        2.1378
  21        2.1378
  22        2.1378
  23        2.1378
  24        2.8191
  25        2.8191
  26        2.8191
  27        2.8191
  28        3.6824
  29        4.0173
  30        4.0173
  31        4.9822
  32        4.9822
  33        5.3150
  34        5.6118
  35        5.6118
  36        5.6182
  37        5.6183
  38        5.6184
  39        5.6184
  40        5.9313
  41        5.9313
  42        5.9313
  43        5.9313
  44        6.2507
  45        6.2507
  46        6.6488
  47        6.6488
  48        6.9765
  49        6.9765
  50        6.9765
  51        6.9765
  52        7.2889
  53        7.2893
  54        7.2893
  55        7.2893
  56        7.3041
  57        7.3045
  58        7.5267
  59        7.5267
  60        7.5269
  61        7.5269
  62        7.5446
  63        7.5446
  64        7.5447
  65        7.5447
  66        8.1652
  67        8.1652
  68        8.1652
 
  0.1666667E+00  0.0000000E+00  0.0000000E+00  0.1157407E-02
   1       -3.5412
   2       -2.1746
   3       -1.4957
   4       -1.4957
   5       -1.4957
   6       -1.4957
   7       -0.8197
   8       -0.1466
   9       -0.1466
  10       -0.1466
  11       -0.1466
  12        0.5238
  13        0.5238
  14        0.5238
  15        0.5238
  16        1.1914
  17        1.1914
  18        1.1914
  19        1.1914
  20        1.8526
  21        1.8526
  22        1.8526
  23        1.8526
  24        3.1338
  25        3.1848
  26        3.1848
  27        3.1848
  28        3.1849
  29        4.0571
  30        4.0571
  31        5.0244
  32        5.0244
  33        5.0875
  34        5.0875
  35        5.0875
  36        5.0876
  37        5.3328
  38        5.3328
  39        5.9391
  40        5.9712
  41        5.9712
  42        5.9712
  43        5.9712
  44        6.3608
  45        6.3608
  46        6.6100
  47        6.6100
  48        7.0181
  49        7.0184
  50        7.0184
  51        7.0186
  52        7.0258
  53        7.0260
  54        7.0260
  55        7.0263
  56        7.2476
  57        7.2476
  58        7.2477
  59        7.2477
  60        7.6672
  61        7.6672
  62        7.8923
  63        7.8923
  64        7.8923
  65        7.8923
  66        8.3194
  67        8.3194
  68        8.3194
 
  0.2500000E+00  0.0000000E+00  0.0000000E+00  0.1157407E-02
   1       -3.4697
   2       -2.4441
   3       -1.4252
   4       -1.4251
   5       -1.4251
   6       -1.4251
   7       -0.4153
   8       -0.4127
   9       -0.4127
  10       -0.4127
  11       -0.4103
  12        0.5934
  13        0.5934
  14        0.5934
  15        0.5934
  16        1.5889
  17        1.5908
  18        1.5908
  19        1.5914
  20        1.5933
  21        1.5938
  22        1.5938
  23        1.5958
  24        2.5662
  25        3.5802
  26        3.5802
  27        3.5802
  28        3.5802
  29        4.1235
  30        4.1235
  31        4.5314
  32        4.5314
  33        4.5314
  34        4.5314
  35        5.0802
  36        5.0802
  37        5.0947
  38        5.0947
  39        6.0376
  40        6.0376
  41        6.0376
  42        6.0377
  43        6.0986
  44        6.0986
  45        6.4789
  46        6.4789
  47        6.4789
  48        6.4789
  49        6.6324
  50        6.9933
  51        6.9933
  52        6.9950
  53        6.9950
  54        6.9978
  55        6.9978
  56        7.0872
  57        7.0872
  58        7.0872
  59        7.0872
  60        8.0537
  61        8.0537
  62        8.0642
  63        8.0642
  64        8.0644
  65        8.0644
  66        8.5701
  67        8.5701
  68        8.5701
 
  0.3333333E+00  0.0000000E+00  0.0000000E+00  0.1157407E-02
   1       -3.3697
   2       -2.6857
   3       -1.3265
   4       -1.3264
   5       -1.3264
   6       -1.3264
   7       -0.6512
   8       -0.6512
   9       -0.6512
  10       -0.6512
  11        0.0208
  12        0.6908
  13        0.6908
  14        0.6908
  15        0.6908
  16        1.3566
  17        1.3566
  18        1.3566
  19        1.3566
  20        2.0112
  21        2.0214
  22        2.0214
  23        2.0214
  24        2.0216
  25        3.9855
  26        3.9855
  27        3.9855
  28        3.9855
  29        4.0024
  30        4.0025
  31        4.0025
  32        4.0025
  33        4.2165
  34        4.2165
  35        4.8542
  36        4.8542
  37        5.1930
  38        5.1930
  39        5.8630
  40        5.8630
  41        5.9408
  42        5.9408
  43        5.9408
  44        5.9408
  45        6.1307
  46        6.1307
  47        6.1307
  48        6.1307
  49        6.7689
  50        6.7689
  51        6.7689
  52        6.7689
  53        7.1829
  54        7.1829
  55        7.1829
  56        7.1829
  57        7.3631
  58        7.4089
  59        7.4089
  60        7.8349
  61        7.8349
  62        7.8349
  63        7.8349
  64        8.4624
  65        8.4624
  66        9.2870
  67        9.2887
  68        9.2960
 
  0.4166667E+00  0.0000000E+00  0.0000000E+00  0.1157407E-02
   1       -3.2412
   2       -2.8991
   3       -1.1997
   4       -1.1996
   5       -1.1996
   6       -1.1996
   7       -0.8619
   8       -0.8619
   9       -0.8619
  10       -0.8619
  11        0.4807
  12        0.8158
  13        0.8159
  14        0.8159
  15        0.8159
  16        1.1489
  17        1.1489
  18        1.1489
  19        1.1489
  20        1.4771
  21        2.4756
  22        2.4756
  23        2.4756
  24        2.4756
  25        3.4589
  26        3.4589
  27        3.4589
  28        3.4589
  29        4.3360
  30        4.3360
  31        4.4506
  32        4.4506
  33        4.4506
  34        4.4506
  35        4.6549
  36        4.6549
  37        5.3191
  38        5.3191
  39        5.4212
  40        5.4212
  41        5.4212
  42        5.4212
  43        5.6544
  44        5.6544
  45        6.2503
  46        6.2503
  47        6.2504
  48        6.2504
  49        6.5694
  50        6.5695
  51        6.5695
  52        6.5695
  53        7.3057
  54        7.3057
  55        7.3057
  56        7.3057
  57        7.6319
  58        7.6319
  59        7.6319
  60        7.6319
  61        7.8484
  62        7.8484
  63        8.1230
  64        8.8073
  65        8.8073
  66        8.8908
  67        8.8908
  68        9.7525
 
  0.5000000E+00  0.0000000E+00  0.0000000E+00  0.5787037E-03
   1       -3.0857
   2       -3.0831
   3       -1.0484
   4       -1.0455
   5       -1.0455
   6       -1.0449
   7       -1.0447
   8       -1.0440
   9       -1.0440
  10       -1.0412
  11        0.9630
  12        0.9664
  13        0.9674
  14        0.9674
  15        0.9680
  16        0.9683
  17        0.9689
  18        0.9698
  19        0.9698
  20        0.9726
  21        2.9536
  22        2.9543
  23        2.9543
  24        2.9549
  25        2.9551
  26        2.9557
  27        2.9557
  28        2.9565
  29        4.4808
  30        4.4808
  31        4.4835
  32        4.4835
  33        4.9228
  34        4.9228
  35        4.9235
  36        4.9235
  37        4.9242
  38        4.9243
  39        4.9250
  40        4.9250
  41        5.4714
  42        5.4721
  43        5.4739
  44        5.4746
  45        6.3944
  46        6.3944
  47        6.3954
  48        6.3965
  49        6.3967
  50        6.3978
  51        6.3988
  52        6.3988
  53        7.4531
  54        7.4545
  55        7.4545
  56        7.4545
  57        7.4562
  58        7.4563
  59        7.4563
  60        7.4577
  61        8.3134
  62        8.3134
  63        8.3157
  64        8.3157
  65        8.9082
  66        8.9098
  67        9.3355
  68        9.3369
 
  0.0000000E+00  0.8333333E-01  0.0000000E+00  0.2314815E-02
   1       -3.5841
   2       -1.8772
   3       -1.5407
   4       -1.5380
   5       -1.5380
   6       -1.5353
   7       -1.1995
   8        0.1444
   9        0.1471
  10        0.1471
  11        0.1497
  12        0.4799
  13        0.4810
  14        0.4830
  15        0.4842
  16        0.8136
  17        0.8163
  18        0.8163
  19        0.8190
  20        2.1358
  21        2.1368
  22        2.1388
  23        2.1399
  24        2.8170
  25        2.8181
  26        2.8201
  27        2.8212
  28        3.6824
  29        4.0173
  30        4.0173
  31        4.9822
  32        4.9822
  33        5.3150
  34        5.6111
  35        5.6120
  36        5.6160
  37        5.6182
  38        5.6182
  39        5.6214
  40        5.9288
  41        5.9313
  42        5.9313
  43        5.9338
  44        6.2507
  45        6.2507
  46        6.6488
  47        6.6488
  48        6.9747
  49        6.9765
  50        6.9765
  51        6.9783
  52        7.2867
  53        7.2893
  54        7.2893
  55        7.2918
  56        7.3041
  57        7.3042
  58        7.5243
  59        7.5267
  60        7.5269
  61        7.5293
  62        7.5422
  63        7.5437
  64        7.5456
  65        7.5471
  66        8.1632
  67        8.1652
  68        8.1672
 
  0.8333333E-01  0.8333333E-01  0.0000000E+00  0.4629630E-02
   1       -3.5698
   2       -1.8641
   3       -1.8620
   4       -1.5239
   5       -1.5239
   6       -1.1865
   7       -1.1844
   8       -0.1746
   9        0.1595
  10        0.1604
  11        0.1617
  12        0.1626
  13        0.4954
  14        0.4965
  15        0.8287
  16        0.8296
  17        0.8308
  18        0.8317
  19        1.1638
  20        1.8249
  21        1.8249
  22        2.4113
  23        2.4113
  24        2.5737
  25        2.5737
  26        3.1576
  27        3.1576
  28        3.6954
  29        3.6963
  30        4.0306
  31        4.9963
  32        5.3086
  33        5.3108
  34        5.3284
  35        5.3293
  36        5.6218
  37        5.6225
  38        5.6245
  39        5.6268
  40        5.6409
  41        5.6410
  42        5.9526
  43        5.9537
  44        6.2628
  45        6.2652
  46        6.6624
  47        6.6643
  48        6.9750
  49        6.9757
  50        7.2209
  51        7.2361
  52        7.2370
  53        7.2383
  54        7.2391
  55        7.2850
  56        7.2850
  57        7.3165
  58        7.3182
  59        7.3184
  60        7.3198
  61        7.6241
  62        7.6261
  63        7.8585
  64        7.8603
  65        7.8767
  66        7.8778
  67        7.8779
  68        7.8789
 
  0.1666667E+00  0.8333333E-01  0.0000000E+00  0.4629630E-02
   1       -3.5269
   2       -2.1604
   3       -1.8206
   4       -1.4816
   5       -1.4816
   6       -1.1432
   7       -0.8057
   8       -0.4688
   9       -0.1326
  10       -0.1326
  11        0.2023
  12        0.2029
  13        0.2035
  14        0.8712
  15        0.8719
  16        0.8725
  17        1.2053
  18        1.2053
  19        1.5357
  20        1.5359
  21        1.5382
  22        2.1933
  23        2.1933
  24        2.8735
  25        2.8735
  26        3.1474
  27        3.5259
  28        3.5259
  29        3.7363
  30        4.0704
  31        4.7766
  32        5.0278
  33        5.0385
  34        5.1008
  35        5.1008
  36        5.3461
  37        5.3704
  38        5.4248
  39        5.6652
  40        5.6723
  41        5.6723
  42        5.9528
  43        6.3038
  44        6.3116
  45        6.3780
  46        6.6233
  47        6.6904
  48        6.7048
  49        6.7174
  50        6.7176
  51        6.9417
  52        6.9571
  53        6.9571
  54        7.3420
  55        7.3421
  56        7.3564
  57        7.3604
  58        7.3609
  59        7.5802
  60        7.5845
  61        7.6808
  62        7.9058
  63        7.9058
  64        7.9861
  65        8.0112
  66        8.2192
  67        8.2269
  68        8.2373
 
  0.2500000E+00  0.8333333E-01  0.0000000E+00  0.4629630E-02
   1       -3.4554
   2       -2.4299
   3       -1.7500
   4       -1.4110
   5       -1.4110
   6       -1.0729
   7       -0.7355
   8       -0.4005
   9       -0.3987
  10       -0.3970
  11       -0.0626
  12        0.2726
  13        0.2726
  14        0.9413
  15        0.9413
  16        1.2720
  17        1.2732
  18        1.2757
  19        1.6071
  20        1.6071
  21        1.9350
  22        1.9358
  23        1.9398
  24        2.5799
  25        3.2665
  26        3.2665
  27        3.8037
  28        3.9213
  29        3.9213
  30        4.1368
  31        4.2189
  32        4.5449
  33        4.5449
  34        4.7726
  35        4.8705
  36        5.0935
  37        5.1088
  38        5.4397
  39        5.7317
  40        5.7392
  41        5.7393
  42        6.1122
  43        6.1693
  44        6.1693
  45        6.3703
  46        6.4310
  47        6.6460
  48        6.6890
  49        6.7011
  50        6.7032
  51        6.7051
  52        6.7737
  53        6.8147
  54        6.8147
  55        7.0094
  56        7.3276
  57        7.4101
  58        7.4102
  59        7.4257
  60        7.7549
  61        8.0673
  62        8.2641
  63        8.3705
  64        8.3801
  65        8.3804
  66        8.3982
  67        8.5840
  68        8.5853
 
  0.3333333E+00  0.8333333E-01  0.0000000E+00  0.4629630E-02
   1       -3.3554
   2       -2.6715
   3       -1.6511
   4       -1.3124
   5       -1.3123
   6       -0.9750
   7       -0.9739
   8       -0.6372
   9       -0.6372
  10       -0.3006
  11        0.0347
  12        0.3702
  13        0.3702
  14        1.0373
  15        1.0375
  16        1.0386
  17        1.0388
  18        1.7020
  19        1.7023
  20        1.7037
  21        2.0250
  22        2.0352
  23        2.0353
  24        2.3663
  25        3.6716
  26        3.6887
  27        3.6887
  28        3.8980
  29        3.9991
  30        3.9991
  31        4.2298
  32        4.3259
  33        4.3431
  34        4.3431
  35        4.5440
  36        4.8675
  37        5.2070
  38        5.5366
  39        5.6301
  40        5.6301
  41        5.8247
  42        5.8331
  43        5.8331
  44        5.8769
  45        6.1981
  46        6.2778
  47        6.2778
  48        6.4623
  49        6.4640
  50        6.4758
  51        6.4758
  52        6.8697
  53        7.1016
  54        7.1167
  55        7.3766
  56        7.4222
  57        7.5050
  58        7.5050
  59        7.5210
  60        7.5246
  61        8.1523
  62        8.1523
  63        8.1700
  64        8.4758
  65        8.7776
  66        8.9849
  67        9.0195
  68        9.0303
 
  0.4166667E+00  0.8333333E-01  0.0000000E+00  0.4629630E-02
   1       -3.2270
   2       -2.8849
   3       -1.5240
   4       -1.1868
   5       -1.1856
   6       -1.1843
   7       -0.8491
   8       -0.8479
   9       -0.8466
  10       -0.5109
  11        0.4937
  12        0.4956
  13        0.4965
  14        0.8294
  15        0.8294
  16        1.1632
  17        1.1632
  18        1.4906
  19        1.4953
  20        1.4957
  21        2.1585
  22        2.4893
  23        2.4893
  24        2.8195
  25        3.1439
  26        3.4725
  27        3.4725
  28        3.8006
  29        4.0192
  30        4.1374
  31        4.1374
  32        4.3423
  33        4.3493
  34        4.6681
  35        4.7905
  36        4.7905
  37        5.1096
  38        5.1096
  39        5.3331
  40        5.6610
  41        5.6683
  42        5.7593
  43        5.7593
  44        5.9444
  45        5.9536
  46        5.9536
  47        5.9920
  48        6.2635
  49        6.2750
  50        6.2750
  51        6.5830
  52        6.9021
  53        6.9930
  54        7.3207
  55        7.5564
  56        7.6268
  57        7.6268
  58        7.6432
  59        7.8617
  60        7.9506
  61        7.9506
  62        7.9679
  63        8.1365
  64        8.5117
  65        8.8206
  66        8.9041
  67        9.2048
  68        9.4579
 
  0.5000000E+00  0.8333333E-01  0.0000000E+00  0.2314815E-02
   1       -3.0714
   2       -3.0688
   3       -1.3701
   4       -1.3675
   5       -1.0326
   6       -1.0314
   7       -1.0300
   8       -1.0289
   9       -0.6946
  10       -0.6920
  11        0.6468
  12        0.6479
  13        0.6494
  14        0.6505
  15        0.9795
  16        0.9810
  17        1.3137
  18        1.3148
  19        1.3163
  20        1.3174
  21        2.6382
  22        2.6397
  23        2.9679
  24        2.9680
  25        2.9694
  26        2.9695
  27        3.2971
  28        3.2986
  29        4.1660
  30        4.1686
  31        4.4940
  32        4.4968
  33        4.6106
  34        4.6106
  35        4.6121
  36        4.6121
  37        5.2622
  38        5.2622
  39        5.2637
  40        5.2637
  41        5.4858
  42        5.4882
  43        5.8117
  44        5.8142
  45        6.0892
  46        6.0919
  47        6.0989
  48        6.1004
  49        6.1017
  50        6.1030
  51        6.7279
  52        6.7307
  53        7.1422
  54        7.1446
  55        7.7737
  56        7.7745
  57        7.7763
  58        7.7770
  59        7.7911
  60        7.7935
  61        8.0207
  62        8.0226
  63        8.3267
  64        8.3290
  65        8.9215
  66        8.9231
  67        9.3491
  68        9.3497
 
  0.0000000E+00  0.1666667E+00  0.0000000E+00  0.2314815E-02
   1       -3.5412
   2       -2.1746
   3       -1.4983
   4       -1.4957
   5       -1.4957
   6       -1.4930
   7       -0.8197
   8       -0.1492
   9       -0.1466
  10       -0.1466
  11       -0.1439
  12        0.5217
  13        0.5228
  14        0.5248
  15        0.5259
  16        1.1888
  17        1.1914
  18        1.1914
  19        1.1941
  20        1.8505
  21        1.8516
  22        1.8536
  23        1.8547
  24        3.1337
  25        3.1827
  26        3.1838
  27        3.1858
  28        3.1869
  29        4.0572
  30        4.0572
  31        5.0244
  32        5.0245
  33        5.0847
  34        5.0875
  35        5.0875
  36        5.0903
  37        5.3328
  38        5.3328
  39        5.9391
  40        5.9687
  41        5.9712
  42        5.9712
  43        5.9737
  44        6.3607
  45        6.3608
  46        6.6100
  47        6.6100
  48        7.0167
  49        7.0185
  50        7.0186
  51        7.0204
  52        7.0235
  53        7.0248
  54        7.0267
  55        7.0281
  56        7.2451
  57        7.2476
  58        7.2477
  59        7.2502
  60        7.6672
  61        7.6672
  62        7.8898
  63        7.8923
  64        7.8923
  65        7.8949
  66        8.3180
  67        8.3194
  68        8.3213
 
  0.8333333E-01  0.1666667E+00  0.0000000E+00  0.4629630E-02
   1       -3.5269
   2       -2.1604
   3       -1.8206
   4       -1.4816
   5       -1.4816
   6       -1.1432
   7       -0.8057
   8       -0.4688
   9       -0.1326
  10       -0.1326
  11        0.2015
  12        0.2029
  13        0.2043
  14        0.8704
  15        0.8719
  16        0.8732
  17        1.2053
  18        1.2053
  19        1.5357
  20        1.5359
  21        1.5382
  22        2.1933
  23        2.1933
  24        2.8735
  25        2.8735
  26        3.1474
  27        3.5259
  28        3.5259
  29        3.7363
  30        4.0704
  31        4.7766
  32        5.0278
  33        5.0385
  34        5.1008
  35        5.1008
  36        5.3461
  37        5.3705
  38        5.4248
  39        5.6650
  40        5.6723
  41        5.6725
  42        5.9528
  43        6.3038
  44        6.3116
  45        6.3780
  46        6.6233
  47        6.6904
  48        6.7049
  49        6.7174
  50        6.7174
  51        6.9416
  52        6.9571
  53        6.9572
  54        7.3420
  55        7.3421
  56        7.3569
  57        7.3603
  58        7.3604
  59        7.5802
  60        7.5845
  61        7.6808
  62        7.9058
  63        7.9058
  64        7.9861
  65        8.0112
  66        8.2212
  67        8.2297
  68        8.2374
 
  0.1666667E+00  0.1666667E+00  0.0000000E+00  0.4629630E-02
   1       -3.4840
   2       -2.1190
   3       -2.1168
   4       -1.4393
   5       -1.4392
   6       -0.7653
   7       -0.7635
   8       -0.7618
   9       -0.0922
  10       -0.0913
  11       -0.0900
  12       -0.0891
  13        0.5789
  14        0.5800
  15        1.2439
  16        1.2449
  17        1.2463
  18        1.2465
  19        1.2477
  20        1.2489
  21        1.9116
  22        2.4961
  23        2.4961
  24        2.6538
  25        2.6538
  26        3.1878
  27        3.1888
  28        3.8943
  29        3.8943
  30        4.1103
  31        4.4913
  32        4.4935
  33        5.0806
  34        5.1220
  35        5.1221
  36        5.1614
  37        5.1614
  38        5.3847
  39        5.3871
  40        5.7877
  41        5.7886
  42        5.9934
  43        5.9945
  44        6.4159
  45        6.4179
  46        6.4341
  47        6.4348
  48        6.4362
  49        6.4372
  50        6.6608
  51        6.6629
  52        6.6651
  53        7.2995
  54        7.3002
  55        7.7192
  56        7.7207
  57        7.7210
  58        7.7210
  59        7.7218
  60        7.7234
  61        7.7285
  62        7.9345
  63        7.9346
  64        7.9386
  65        7.9404
  66        7.9572
  67        7.9573
  68        8.5830
 
  0.2500000E+00  0.1666667E+00  0.0000000E+00  0.4629630E-02
   1       -3.4126
   2       -2.3874
   3       -2.0471
   4       -1.3687
   5       -1.3687
   6       -1.0308
   7       -0.6933
   8       -0.3585
   9       -0.3567
  10       -0.3550
  11       -0.0208
  12       -0.0208
  13        0.3145
  14        0.9806
  15        0.9820
  16        0.9842
  17        1.3161
  18        1.3161
  19        1.6485
  20        1.6486
  21        2.3038
  22        2.3042
  23        2.3120
  24        2.6211
  25        2.9823
  26        2.9823
  27        3.2564
  28        3.9331
  29        4.1766
  30        4.2349
  31        4.2892
  32        4.2892
  33        4.5851
  34        4.5851
  35        5.1333
  36        5.1509
  37        5.2102
  38        5.2102
  39        5.2358
  40        5.4524
  41        5.8862
  42        5.8862
  43        6.0624
  44        6.1425
  45        6.1799
  46        6.1801
  47        6.1907
  48        6.4096
  49        6.4859
  50        6.6868
  51        6.7297
  52        7.0432
  53        7.0493
  54        7.1766
  55        7.1766
  56        7.4708
  57        7.6869
  58        7.7879
  59        7.9841
  60        8.0130
  61        8.0130
  62        8.1075
  63        8.1075
  64        8.1078
  65        8.3252
  66        8.6236
  67        8.6236
  68        8.7560
 
  0.3333333E+00  0.1666667E+00  0.0000000E+00  0.4629630E-02
   1       -3.3126
   2       -2.6289
   3       -1.9480
   4       -1.2714
   5       -1.2701
   6       -1.2689
   7       -0.5964
   8       -0.5951
   9       -0.5938
  10        0.0750
  11        0.0770
  12        0.0770
  13        0.0788
  14        0.7458
  15        0.7458
  16        1.4121
  17        1.4130
  18        1.4135
  19        2.0662
  20        2.0735
  21        2.0739
  22        2.0768
  23        2.0775
  24        2.7379
  25        3.3516
  26        3.3846
  27        3.4023
  28        3.4024
  29        4.0043
  30        4.0397
  31        4.0397
  32        4.2696
  33        4.6928
  34        4.7102
  35        4.7103
  36        4.9074
  37        5.2491
  38        5.3044
  39        5.3044
  40        5.3460
  41        5.3461
  42        5.5454
  43        5.9182
  44        5.9514
  45        5.9514
  46        6.1582
  47        6.1836
  48        6.5822
  49        6.5950
  50        6.6409
  51        6.6409
  52        6.8127
  53        6.8227
  54        7.2396
  55        7.4171
  56        7.4598
  57        7.4631
  58        7.8833
  59        8.1071
  60        8.1071
  61        8.5039
  62        8.5159
  63        8.5194
  64        8.5194
  65        8.5291
  66        8.7044
  67        8.7376
  68        8.7492
 
  0.4166667E+00  0.1666667E+00  0.0000000E+00  0.4629630E-02
   1       -3.1842
   2       -2.8422
   3       -1.8207
   4       -1.4817
   5       -1.1433
   6       -1.1433
   7       -0.8058
   8       -0.8058
   9       -0.4688
  10       -0.1327
  11        0.2026
  12        0.2026
  13        0.5353
  14        0.5371
  15        0.5382
  16        1.5320
  17        1.5374
  18        1.5378
  19        1.8679
  20        1.8684
  21        1.8690
  22        2.5305
  23        2.5305
  24        2.8557
  25        3.1900
  26        3.4742
  27        3.5134
  28        3.5134
  29        3.8005
  30        3.8511
  31        3.8511
  32        4.1688
  33        4.3891
  34        4.7080
  35        4.8246
  36        4.8246
  37        5.1568
  38        5.1568
  39        5.3751
  40        5.4258
  41        5.4258
  42        5.6650
  43        5.7100
  44        5.7494
  45        5.7494
  46        5.9841
  47        6.1235
  48        6.1236
  49        6.2813
  50        6.6087
  51        6.7060
  52        6.9424
  53        7.0346
  54        7.0361
  55        7.2615
  56        7.9015
  57        7.9915
  58        8.0050
  59        8.1767
  60        8.2279
  61        8.2279
  62        8.3280
  63        8.5491
  64        8.5491
  65        8.8604
  66        8.9440
  67        8.9565
  68        8.9565
 
  0.5000000E+00  0.1666667E+00  0.0000000E+00  0.2314815E-02
   1       -3.0287
   2       -3.0261
   3       -1.6666
   4       -1.6640
   5       -0.9904
   6       -0.9893
   7       -0.9878
   8       -0.9867
   9       -0.3160
  10       -0.3134
  11        0.3542
  12        0.3553
  13        0.3568
  14        0.3579
  15        1.0212
  16        1.0227
  17        1.6875
  18        1.6886
  19        1.6901
  20        1.6911
  21        2.3491
  22        2.3506
  23        3.0090
  24        3.0090
  25        3.0104
  26        3.0105
  27        3.6225
  28        3.6252
  29        3.6665
  30        3.6680
  31        4.3248
  32        4.3249
  33        4.3263
  34        4.3264
  35        4.5339
  36        4.5367
  37        5.5276
  38        5.5300
  39        5.5722
  40        5.5735
  41        5.5749
  42        5.5761
  43        5.6275
  44        5.6275
  45        5.6290
  46        5.6290
  47        5.8099
  48        5.8127
  49        6.4302
  50        6.4328
  51        6.8557
  52        6.8582
  53        7.0872
  54        7.0900
  55        7.5007
  56        7.5025
  57        8.1520
  58        8.1544
  59        8.3664
  60        8.3686
  61        8.3735
  62        8.3746
  63        8.3762
  64        8.3770
  65        8.9615
  66        8.9631
  67        9.4072
  68        9.4172
 
  0.0000000E+00  0.2500000E+00  0.0000000E+00  0.2314815E-02
   1       -3.4697
   2       -2.4441
   3       -1.4278
   4       -1.4251
   5       -1.4251
   6       -1.4225
   7       -0.4155
   8       -0.4128
   9       -0.4127
  10       -0.4127
  11       -0.4100
  12        0.5913
  13        0.5924
  14        0.5944
  15        0.5955
  16        1.5888
  17        1.5903
  18        1.5910
  19        1.5922
  20        1.5932
  21        1.5933
  22        1.5935
  23        1.5962
  24        2.5662
  25        3.5781
  26        3.5792
  27        3.5812
  28        3.5823
  29        4.1235
  30        4.1236
  31        4.5287
  32        4.5314
  33        4.5314
  34        4.5342
  35        5.0801
  36        5.0802
  37        5.0947
  38        5.0948
  39        6.0352
  40        6.0376
  41        6.0377
  42        6.0401
  43        6.0986
  44        6.0986
  45        6.4766
  46        6.4779
  47        6.4799
  48        6.4811
  49        6.6324
  50        6.9922
  51        6.9950
  52        6.9950
  53        6.9958
  54        6.9961
  55        6.9981
  56        7.0853
  57        7.0872
  58        7.0872
  59        7.0891
  60        8.0537
  61        8.0538
  62        8.0624
  63        8.0642
  64        8.0642
  65        8.0661
  66        8.5678
  67        8.5701
  68        8.5709
 