 vasp.4.6.28 25Jul05 complex 
 executed on             LinuxIFC date 2016.11.12  03:59:32
 running on    4 nodes
 distr:  one band on    1 nodes,    4 groups


--------------------------------------------------------------------------------------------------------


 INCAR:
 POTCAR:   PAW_PBE Al 04Jan2001                   
 POTCAR:   PAW_PBE Al 04Jan2001                   
   VRHFIN =Al: s2p1                                                             
   LEXCH  = PE                                                                  
   EATOM  =    53.5387 eV,    3.9350 Ry                                         
                                                                                
   TITEL  = PAW_PBE Al 04Jan2001                                                
   LULTRA =        F    use ultrasoft PP ?                                      
   IUNSCR =        1    unscreen: 0-lin 1-nonlin 2-no                           
   RPACOR =    1.500    partial core radius                                     
   POMASS =   26.982; ZVAL   =    3.000    mass and valenz                      
   RCORE  =    1.900    outmost cutoff radius                                   
   RWIGS  =    2.650; RWIGS  =    1.402    wigner-seitz radius (au A)           
   ENMAX  =  240.300; ENMIN  =  180.225 eV                                      
   ICORE  =        2    local potential                                         
   LCOR   =        T    correct aug charges                                     
   LPAW   =        T    paw PP                                                  
   EAUG   =  291.052                                                            
   DEXC   =    -.041                                                            
   RMAX   =    2.974    core radius for proj-oper                               
   RAUG   =    1.300    factor for augmentation sphere                          
   RDEP   =    1.966    radius for radial grids                                 
   QCUT   =   -4.203; QGAM   =    8.405    optimization parameters              
                                                                                
   Description                                                                  
     l     E      TYP  RCUT    TYP  RCUT                                        
     0   .000     23  1.900                                                     
     0   .000     23  1.900                                                     
     1   .000     23  1.900                                                     
     1  1.000     23  1.900                                                     
     2   .000      7  1.900                                                     
  local pseudopotential read in
  partial core-charges read in
  atomic valenz-charges read in
  non local Contribution for L=           0  read in
    real space projection operators read in
  non local Contribution for L=           0  read in
    real space projection operators read in
  non local Contribution for L=           1  read in
    real space projection operators read in
  non local Contribution for L=           1  read in
    real space projection operators read in
    PAW grid and wavefunctions read in
 
   number of l-projection  operators is LMAX  =           4
   number of lm-projection operators is LMMAX =           8
 

 ----------------------------------------------------------------------------- 
|                                                                             |
|  ADVICE TO THIS USER RUNNING 'VASP/VAMP'   (HEAR YOUR MASTER'S VOICE ...):  |
|                                                                             |
|      You have a (more or less) 'large supercell' and for larger cells       |
|      it might be more efficient to use real space projection operators      |
|      So try LREAL= Auto  in the INCAR   file.                               |
|      Mind: If you want to do an extremely accurate calculations keep the    |
|      reciprocal projection scheme          (i.e. LREAL=.FALSE.)             |
|                                                                             |
 ----------------------------------------------------------------------------- 

 PAW_PBE Al 04Jan2001                   :
 energy of atom  1       EATOM=  -53.5387
 kinetic energy error for atom=    0.0001 (will be added to EATOM!!)
 
 EXHCAR: internal setup
 exchange correlation table for  LEXCH =        8
   RHO(1)=    0.500       N(1)  =     2000
   RHO(2)=  100.500       N(2)  =     4000
 
 POSCAR: Al                                      
  positions in direct lattice
  No initial velocities read in
 


--------------------------------------------------------------------------------------------------------


 ion  position               nearest neighbor table
   1  0.251  0.250  0.000-  18 2.99  22 2.99  26 2.99  28 2.99   9 3.00  11 3.00  13 3.00  15 3.00
                            25 3.00  21 3.00  27 3.00  17 3.00
   2  0.750  0.250  0.000-  10 3.00  12 3.00  14 3.00  16 3.00  17 3.00  18 3.00  21 3.00  22 3.00
                            25 3.00  26 3.00  27 3.00  28 3.00
   3  0.250  0.750  0.000-   9 3.00  11 3.00  13 3.00  15 3.00  19 3.00  20 3.00  23 3.00  24 3.00
                            25 3.00  26 3.00  27 3.00  28 3.00
   4  0.750  0.750  0.000-  10 3.00  12 3.00  14 3.00  16 3.00  19 3.00  20 3.00  23 3.00  24 3.00
                            25 3.00  26 3.00  27 3.00  28 3.00
   5  0.250  0.250  0.500-   9 3.00  11 3.00  13 3.00  15 3.00  17 3.00  18 3.00  21 3.00  22 3.00
                            29 3.00  30 3.00  31 3.00  32 3.00
   6  0.750  0.250  0.500-  10 3.00  12 3.00  14 3.00  16 3.00  17 3.00  18 3.00  21 3.00  22 3.00
                            29 3.00  30 3.00  31 3.00  32 3.00
   7  0.250  0.750  0.500-   9 3.00  11 3.00  13 3.00  15 3.00  19 3.00  20 3.00  23 3.00  24 3.00
                            29 3.00  30 3.00  31 3.00  32 3.00
   8  0.750  0.750  0.500-  10 3.00  12 3.00  14 3.00  16 3.00  19 3.00  20 3.00  23 3.00  24 3.00
                            29 3.00  30 3.00  31 3.00  32 3.00
   9  0.250  0.000  0.250-   3 3.00   5 3.00   7 3.00  17 3.00  18 3.00  19 3.00  20 3.00  25 3.00
                            26 3.00  29 3.00  30 3.00   1 3.00
  10  0.750  0.000  0.250-   2 3.00   4 3.00   6 3.00   8 3.00  17 3.00  18 3.00  19 3.00  20 3.00
                            25 3.00  26 3.00  29 3.00  30 3.00
  11  0.250  0.500  0.250-   3 3.00   5 3.00   7 3.00  17 3.00  18 3.00  19 3.00  20 3.00  27 3.00
                            28 3.00  31 3.00  32 3.00   1 3.00
  12  0.750  0.500  0.250-   2 3.00   4 3.00   6 3.00   8 3.00  17 3.00  18 3.00  19 3.00  20 3.00
                            27 3.00  28 3.00  31 3.00  32 3.00
  13  0.250  0.000  0.750-   3 3.00   5 3.00   7 3.00  21 3.00  22 3.00  23 3.00  24 3.00  25 3.00
                            26 3.00  29 3.00  30 3.00   1 3.00
  14  0.750  0.000  0.750-   2 3.00   4 3.00   6 3.00   8 3.00  21 3.00  22 3.00  23 3.00  24 3.00
                            25 3.00  26 3.00  29 3.00  30 3.00
  15  0.250  0.500  0.750-   3 3.00   5 3.00   7 3.00  21 3.00  22 3.00  23 3.00  24 3.00  27 3.00
                            28 3.00  31 3.00  32 3.00   1 3.00
  16  0.750  0.500  0.750-   2 3.00   4 3.00   6 3.00   8 3.00  21 3.00  22 3.00  23 3.00  24 3.00
                            27 3.00  28 3.00  31 3.00  32 3.00
  17  0.000  0.250  0.250-   2 3.00   5 3.00   6 3.00   9 3.00  10 3.00  11 3.00  12 3.00  25 3.00
                            27 3.00  29 3.00  31 3.00   1 3.00
  18  0.500  0.250  0.250-   1 2.99   2 3.00   5 3.00   6 3.00   9 3.00  10 3.00  11 3.00  12 3.00
                            26 3.00  28 3.00  30 3.00  32 3.00
  19  0.000  0.750  0.250-   3 3.00   4 3.00   7 3.00   8 3.00   9 3.00  10 3.00  11 3.00  12 3.00
                            25 3.00  27 3.00  29 3.00  31 3.00
  20  0.500  0.750  0.250-   3 3.00   4 3.00   7 3.00   8 3.00   9 3.00  10 3.00  11 3.00  12 3.00
                            26 3.00  28 3.00  30 3.00  32 3.00
  21  0.000  0.250  0.750-   2 3.00   5 3.00   6 3.00  13 3.00  14 3.00  15 3.00  16 3.00  25 3.00
                            27 3.00  29 3.00  31 3.00   1 3.00
  22  0.500  0.250  0.750-   1 2.99   2 3.00   5 3.00   6 3.00  13 3.00  14 3.00  15 3.00  16 3.00
                            26 3.00  28 3.00  30 3.00  32 3.00
  23  0.000  0.750  0.750-   3 3.00   4 3.00   7 3.00   8 3.00  13 3.00  14 3.00  15 3.00  16 3.00
                            25 3.00  27 3.00  29 3.00  31 3.00
  24  0.500  0.750  0.750-   3 3.00   4 3.00   7 3.00   8 3.00  13 3.00  14 3.00  15 3.00  16 3.00
                            26 3.00  28 3.00  30 3.00  32 3.00
  25  0.000  0.000  0.000-   2 3.00   3 3.00   4 3.00   9 3.00  10 3.00  13 3.00  14 3.00  17 3.00
                            19 3.00  21 3.00  23 3.00   1 3.00
  26  0.500  0.000  0.000-   1 2.99   2 3.00   3 3.00   4 3.00   9 3.00  10 3.00  13 3.00  14 3.00
                            18 3.00  20 3.00  22 3.00  24 3.00
  27  0.000  0.500  0.000-   2 3.00   3 3.00   4 3.00  11 3.00  12 3.00  15 3.00  16 3.00  17 3.00
                            19 3.00  21 3.00  23 3.00   1 3.00
  28  0.500  0.500  0.000-   1 2.99   2 3.00   3 3.00   4 3.00  11 3.00  12 3.00  15 3.00  16 3.00
                            18 3.00  20 3.00  22 3.00  24 3.00
  29  0.000  0.000  0.500-   5 3.00   6 3.00   7 3.00   8 3.00   9 3.00  10 3.00  13 3.00  14 3.00
                            17 3.00  19 3.00  21 3.00  23 3.00
  30  0.500  0.000  0.500-   5 3.00   6 3.00   7 3.00   8 3.00   9 3.00  10 3.00  13 3.00  14 3.00
                            18 3.00  20 3.00  22 3.00  24 3.00
  31  0.000  0.500  0.500-   5 3.00   6 3.00   7 3.00   8 3.00  11 3.00  12 3.00  15 3.00  16 3.00
                            17 3.00  19 3.00  21 3.00  23 3.00
  32  0.500  0.500  0.500-   5 3.00   6 3.00   7 3.00   8 3.00  11 3.00  12 3.00  15 3.00  16 3.00
                            18 3.00  20 3.00  22 3.00  24 3.00
 
  LATTYP: Found a simple cubic cell.
 ALAT       =     8.4783433763
  
  Lattice vectors:
  
 A1 = (   8.4783433763,   0.0000000000,   0.0000000000)
 A2 = (   0.0000000000,   8.4783433763,   0.0000000000)
 A3 = (   0.0000000000,   0.0000000000,   8.4783433763)
 Subroutine PRICEL returns:
 Original cell was already a primitive cell.
 

Analysis of symmetry for initial positions (statically):

 Routine SETGRP: Setting up the symmetry group for a 
 simple cubic supercell.


 Subroutine GETGRP returns: Found  8 space group operations
 (whereof  2 operations were pure point group operations)
 out of a pool of 48 trial point group operations.


The static configuration has the point symmetry C_1h.
 The point group associated with its full space group is C_4v.

Analysis of symmetry for dynamics (positions and initial velocities):

 Subroutine DYNSYM returns: Found  8 space group operations
 (whereof  2 operations were pure point group operations)
 out of a pool of  8 trial space group operations
 (whereof  2 operations were pure point group operations)
 and found also     1 'primitive' translations


The dynamic configuration has the point symmetry C_1h.
 The point group associated with its full space group is C_4v.
 
 
 KPOINTS: Automatic mesh                          

Automatic generation of k-mesh.
 
 Subroutine IBZKPT returns following result:
 ===========================================
 
 Found    196 irreducible k-points:
 
 Following reciprocal coordinates:
            Coordinates               Weight
  0.000000  0.000000  0.000000      1.000000
  0.083333  0.000000  0.000000      2.000000
  0.166667  0.000000  0.000000      2.000000
  0.250000  0.000000  0.000000      2.000000
  0.333333  0.000000  0.000000      2.000000
  0.416667  0.000000  0.000000      2.000000
  0.500000  0.000000  0.000000      1.000000
  0.000000  0.083333  0.000000      4.000000
  0.083333  0.083333  0.000000      8.000000
  0.166667  0.083333  0.000000      8.000000
  0.250000  0.083333  0.000000      8.000000
  0.333333  0.083333  0.000000      8.000000
  0.416667  0.083333  0.000000      8.000000
  0.500000  0.083333  0.000000      4.000000
  0.000000  0.166667  0.000000      4.000000
  0.083333  0.166667  0.000000      8.000000
  0.166667  0.166667  0.000000      8.000000
  0.250000  0.166667  0.000000      8.000000
  0.333333  0.166667  0.000000      8.000000
  0.416667  0.166667  0.000000      8.000000
  0.500000  0.166667  0.000000      4.000000
  0.000000  0.250000  0.000000      4.000000
  0.083333  0.250000  0.000000      8.000000
  0.166667  0.250000  0.000000      8.000000
  0.250000  0.250000  0.000000      8.000000
  0.333333  0.250000  0.000000      8.000000
  0.416667  0.250000  0.000000      8.000000
  0.500000  0.250000  0.000000      4.000000
  0.000000  0.333333  0.000000      4.000000
  0.083333  0.333333  0.000000      8.000000
  0.166667  0.333333  0.000000      8.000000
  0.250000  0.333333  0.000000      8.000000
  0.333333  0.333333  0.000000      8.000000
  0.416667  0.333333  0.000000      8.000000
  0.500000  0.333333  0.000000      4.000000
  0.000000  0.416667  0.000000      4.000000
  0.083333  0.416667  0.000000      8.000000
  0.166667  0.416667  0.000000      8.000000
  0.250000  0.416667  0.000000      8.000000
  0.333333  0.416667  0.000000      8.000000
  0.416667  0.416667  0.000000      8.000000
  0.500000  0.416667  0.000000      4.000000
  0.000000  0.500000  0.000000      2.000000
  0.083333  0.500000  0.000000      4.000000
  0.166667  0.500000  0.000000      4.000000
  0.250000  0.500000  0.000000      4.000000
  0.333333  0.500000  0.000000      4.000000
  0.416667  0.500000  0.000000      4.000000
  0.500000  0.500000  0.000000      2.000000
  0.000000  0.083333  0.083333      4.000000
  0.083333  0.083333  0.083333      8.000000
  0.166667  0.083333  0.083333      8.000000
  0.250000  0.083333  0.083333      8.000000
  0.333333  0.083333  0.083333      8.000000
  0.416667  0.083333  0.083333      8.000000
  0.500000  0.083333  0.083333      4.000000
  0.000000  0.166667  0.083333      8.000000
  0.083333  0.166667  0.083333     16.000000
  0.166667  0.166667  0.083333     16.000000
  0.250000  0.166667  0.083333     16.000000
  0.333333  0.166667  0.083333     16.000000
  0.416667  0.166667  0.083333     16.000000
  0.500000  0.166667  0.083333      8.000000
  0.000000  0.250000  0.083333      8.000000
  0.083333  0.250000  0.083333     16.000000
  0.166667  0.250000  0.083333     16.000000
  0.250000  0.250000  0.083333     16.000000
  0.333333  0.250000  0.083333     16.000000
  0.416667  0.250000  0.083333     16.000000
  0.500000  0.250000  0.083333      8.000000
  0.000000  0.333333  0.083333      8.000000
  0.083333  0.333333  0.083333     16.000000
  0.166667  0.333333  0.083333     16.000000
  0.250000  0.333333  0.083333     16.000000
  0.333333  0.333333  0.083333     16.000000
  0.416667  0.333333  0.083333     16.000000
  0.500000  0.333333  0.083333      8.000000
  0.000000  0.416667  0.083333      8.000000
  0.083333  0.416667  0.083333     16.000000
  0.166667  0.416667  0.083333     16.000000
  0.250000  0.416667  0.083333     16.000000
  0.333333  0.416667  0.083333     16.000000
  0.416667  0.416667  0.083333     16.000000
  0.500000  0.416667  0.083333      8.000000
  0.000000  0.500000  0.083333      4.000000
  0.083333  0.500000  0.083333      8.000000
  0.166667  0.500000  0.083333      8.000000
  0.250000  0.500000  0.083333      8.000000
  0.333333  0.500000  0.083333      8.000000
  0.416667  0.500000  0.083333      8.000000
  0.500000  0.500000  0.083333      4.000000
  0.000000  0.166667  0.166667      4.000000
  0.083333  0.166667  0.166667      8.000000
  0.166667  0.166667  0.166667      8.000000
  0.250000  0.166667  0.166667      8.000000
  0.333333  0.166667  0.166667      8.000000
  0.416667  0.166667  0.166667      8.000000
  0.500000  0.166667  0.166667      4.000000
  0.000000  0.250000  0.166667      8.000000
  0.083333  0.250000  0.166667     16.000000
  0.166667  0.250000  0.166667     16.000000
  0.250000  0.250000  0.166667     16.000000
  0.333333  0.250000  0.166667     16.000000
  0.416667  0.250000  0.166667     16.000000
  0.500000  0.250000  0.166667      8.000000
  0.000000  0.333333  0.166667      8.000000
  0.083333  0.333333  0.166667     16.000000
  0.166667  0.333333  0.166667     16.000000
  0.250000  0.333333  0.166667     16.000000
  0.333333  0.333333  0.166667     16.000000
  0.416667  0.333333  0.166667     16.000000
  0.500000  0.333333  0.166667      8.000000
  0.000000  0.416667  0.166667      8.000000
  0.083333  0.416667  0.166667     16.000000
  0.166667  0.416667  0.166667     16.000000
  0.250000  0.416667  0.166667     16.000000
  0.333333  0.416667  0.166667     16.000000
  0.416667  0.416667  0.166667     16.000000
  0.500000  0.416667  0.166667      8.000000
  0.000000  0.500000  0.166667      4.000000
  0.083333  0.500000  0.166667      8.000000
  0.166667  0.500000  0.166667      8.000000
  0.250000  0.500000  0.166667      8.000000
  0.333333  0.500000  0.166667      8.000000
  0.416667  0.500000  0.166667      8.000000
  0.500000  0.500000  0.166667      4.000000
  0.000000  0.250000  0.250000      4.000000
  0.083333  0.250000  0.250000      8.000000
  0.166667  0.250000  0.250000      8.000000
  0.250000  0.250000  0.250000      8.000000
  0.333333  0.250000  0.250000      8.000000
  0.416667  0.250000  0.250000      8.000000
  0.500000  0.250000  0.250000      4.000000
  0.000000  0.333333  0.250000      8.000000
  0.083333  0.333333  0.250000     16.000000
  0.166667  0.333333  0.250000     16.000000
  0.250000  0.333333  0.250000     16.000000
  0.333333  0.333333  0.250000     16.000000
  0.416667  0.333333  0.250000     16.000000
  0.500000  0.333333  0.250000      8.000000
  0.000000  0.416667  0.250000      8.000000
  0.083333  0.416667  0.250000     16.000000
  0.166667  0.416667  0.250000     16.000000
  0.250000  0.416667  0.250000     16.000000
  0.333333  0.416667  0.250000     16.000000
  0.416667  0.416667  0.250000     16.000000
  0.500000  0.416667  0.250000      8.000000
  0.000000  0.500000  0.250000      4.000000
  0.083333  0.500000  0.250000      8.000000
  0.166667  0.500000  0.250000      8.000000
  0.250000  0.500000  0.250000      8.000000
  0.333333  0.500000  0.250000      8.000000
  0.416667  0.500000  0.250000      8.000000
  0.500000  0.500000  0.250000      4.000000
  0.000000  0.333333  0.333333      4.000000
  0.083333  0.333333  0.333333      8.000000
  0.166667  0.333333  0.333333      8.000000
  0.250000  0.333333  0.333333      8.000000
  0.333333  0.333333  0.333333      8.000000
  0.416667  0.333333  0.333333      8.000000
  0.500000  0.333333  0.333333      4.000000
  0.000000  0.416667  0.333333      8.000000
  0.083333  0.416667  0.333333     16.000000
  0.166667  0.416667  0.333333     16.000000
  0.250000  0.416667  0.333333     16.000000
  0.333333  0.416667  0.333333     16.000000
  0.416667  0.416667  0.333333     16.000000
  0.500000  0.416667  0.333333      8.000000
  0.000000  0.500000  0.333333      4.000000
  0.083333  0.500000  0.333333      8.000000
  0.166667  0.500000  0.333333      8.000000
  0.250000  0.500000  0.333333      8.000000
  0.333333  0.500000  0.333333      8.000000
  0.416667  0.500000  0.333333      8.000000
  0.500000  0.500000  0.333333      4.000000
  0.000000  0.416667  0.416667      4.000000
  0.083333  0.416667  0.416667      8.000000
  0.166667  0.416667  0.416667      8.000000
  0.250000  0.416667  0.416667      8.000000
  0.333333  0.416667  0.416667      8.000000
  0.416667  0.416667  0.416667      8.000000
  0.500000  0.416667  0.416667      4.000000
  0.000000  0.500000  0.416667      4.000000
  0.083333  0.500000  0.416667      8.000000
  0.166667  0.500000  0.416667      8.000000
  0.250000  0.500000  0.416667      8.000000
  0.333333  0.500000  0.416667      8.000000
  0.416667  0.500000  0.416667      8.000000
  0.500000  0.500000  0.416667      4.000000
  0.000000  0.500000  0.500000      1.000000
  0.083333  0.500000  0.500000      2.000000
  0.166667  0.500000  0.500000      2.000000
  0.250000  0.500000  0.500000      2.000000
  0.333333  0.500000  0.500000      2.000000
  0.416667  0.500000  0.500000      2.000000
  0.500000  0.500000  0.500000      1.000000
 
 Following cartesian coordinates:
            Coordinates               Weight
  0.000000  0.000000  0.000000      1.000000
  0.009829  0.000000  0.000000      2.000000
  0.019658  0.000000  0.000000      2.000000
  0.029487  0.000000  0.000000      2.000000
  0.039316  0.000000  0.000000      2.000000
  0.049145  0.000000  0.000000      2.000000
  0.058974  0.000000  0.000000      1.000000
  0.000000  0.009829  0.000000      4.000000
  0.009829  0.009829  0.000000      8.000000
  0.019658  0.009829  0.000000      8.000000
  0.029487  0.009829  0.000000      8.000000
  0.039316  0.009829  0.000000      8.000000
  0.049145  0.009829  0.000000      8.000000
  0.058974  0.009829  0.000000      4.000000
  0.000000  0.019658  0.000000      4.000000
  0.009829  0.019658  0.000000      8.000000
  0.019658  0.019658  0.000000      8.000000
  0.029487  0.019658  0.000000      8.000000
  0.039316  0.019658  0.000000      8.000000
  0.049145  0.019658  0.000000      8.000000
  0.058974  0.019658  0.000000      4.000000
  0.000000  0.029487  0.000000      4.000000
  0.009829  0.029487  0.000000      8.000000
  0.019658  0.029487  0.000000      8.000000
  0.029487  0.029487  0.000000      8.000000
  0.039316  0.029487  0.000000      8.000000
  0.049145  0.029487  0.000000      8.000000
  0.058974  0.029487  0.000000      4.000000
  0.000000  0.039316  0.000000      4.000000
  0.009829  0.039316  0.000000      8.000000
  0.019658  0.039316  0.000000      8.000000
  0.029487  0.039316  0.000000      8.000000
  0.039316  0.039316  0.000000      8.000000
  0.049145  0.039316  0.000000      8.000000
  0.058974  0.039316  0.000000      4.000000
  0.000000  0.049145  0.000000      4.000000
  0.009829  0.049145  0.000000      8.000000
  0.019658  0.049145  0.000000      8.000000
  0.029487  0.049145  0.000000      8.000000
  0.039316  0.049145  0.000000      8.000000
  0.049145  0.049145  0.000000      8.000000
  0.058974  0.049145  0.000000      4.000000
  0.000000  0.058974  0.000000      2.000000
  0.009829  0.058974  0.000000      4.000000
  0.019658  0.058974  0.000000      4.000000
  0.029487  0.058974  0.000000      4.000000
  0.039316  0.058974  0.000000      4.000000
  0.049145  0.058974  0.000000      4.000000
  0.058974  0.058974  0.000000      2.000000
  0.000000  0.009829  0.009829      4.000000
  0.009829  0.009829  0.009829      8.000000
  0.019658  0.009829  0.009829      8.000000
  0.029487  0.009829  0.009829      8.000000
  0.039316  0.009829  0.009829      8.000000
  0.049145  0.009829  0.009829      8.000000
  0.058974  0.009829  0.009829      4.000000
  0.000000  0.019658  0.009829      8.000000
  0.009829  0.019658  0.009829     16.000000
  0.019658  0.019658  0.009829     16.000000
  0.029487  0.019658  0.009829     16.000000
  0.039316  0.019658  0.009829     16.000000
  0.049145  0.019658  0.009829     16.000000
  0.058974  0.019658  0.009829      8.000000
  0.000000  0.029487  0.009829      8.000000
  0.009829  0.029487  0.009829     16.000000
  0.019658  0.029487  0.009829     16.000000
  0.029487  0.029487  0.009829     16.000000
  0.039316  0.029487  0.009829     16.000000
  0.049145  0.029487  0.009829     16.000000
  0.058974  0.029487  0.009829      8.000000
  0.000000  0.039316  0.009829      8.000000
  0.009829  0.039316  0.009829     16.000000
  0.019658  0.039316  0.009829     16.000000
  0.029487  0.039316  0.009829     16.000000
  0.039316  0.039316  0.009829     16.000000
  0.049145  0.039316  0.009829     16.000000
  0.058974  0.039316  0.009829      8.000000
  0.000000  0.049145  0.009829      8.000000
  0.009829  0.049145  0.009829     16.000000
  0.019658  0.049145  0.009829     16.000000
  0.029487  0.049145  0.009829     16.000000
  0.039316  0.049145  0.009829     16.000000
  0.049145  0.049145  0.009829     16.000000
  0.058974  0.049145  0.009829      8.000000
  0.000000  0.058974  0.009829      4.000000
  0.009829  0.058974  0.009829      8.000000
  0.019658  0.058974  0.009829      8.000000
  0.029487  0.058974  0.009829      8.000000
  0.039316  0.058974  0.009829      8.000000
  0.049145  0.058974  0.009829      8.000000
  0.058974  0.058974  0.009829      4.000000
  0.000000  0.019658  0.019658      4.000000
  0.009829  0.019658  0.019658      8.000000
  0.019658  0.019658  0.019658      8.000000
  0.029487  0.019658  0.019658      8.000000
  0.039316  0.019658  0.019658      8.000000
  0.049145  0.019658  0.019658      8.000000
  0.058974  0.019658  0.019658      4.000000
  0.000000  0.029487  0.019658      8.000000
  0.009829  0.029487  0.019658     16.000000
  0.019658  0.029487  0.019658     16.000000
  0.029487  0.029487  0.019658     16.000000
  0.039316  0.029487  0.019658     16.000000
  0.049145  0.029487  0.019658     16.000000
  0.058974  0.029487  0.019658      8.000000
  0.000000  0.039316  0.019658      8.000000
  0.009829  0.039316  0.019658     16.000000
  0.019658  0.039316  0.019658     16.000000
  0.029487  0.039316  0.019658     16.000000
  0.039316  0.039316  0.019658     16.000000
  0.049145  0.039316  0.019658     16.000000
  0.058974  0.039316  0.019658      8.000000
  0.000000  0.049145  0.019658      8.000000
  0.009829  0.049145  0.019658     16.000000
  0.019658  0.049145  0.019658     16.000000
  0.029487  0.049145  0.019658     16.000000
  0.039316  0.049145  0.019658     16.000000
  0.049145  0.049145  0.019658     16.000000
  0.058974  0.049145  0.019658      8.000000
  0.000000  0.058974  0.019658      4.000000
  0.009829  0.058974  0.019658      8.000000
  0.019658  0.058974  0.019658      8.000000
  0.029487  0.058974  0.019658      8.000000
  0.039316  0.058974  0.019658      8.000000
  0.049145  0.058974  0.019658      8.000000
  0.058974  0.058974  0.019658      4.000000
  0.000000  0.029487  0.029487      4.000000
  0.009829  0.029487  0.029487      8.000000
  0.019658  0.029487  0.029487      8.000000
  0.029487  0.029487  0.029487      8.000000
  0.039316  0.029487  0.029487      8.000000
  0.049145  0.029487  0.029487      8.000000
  0.058974  0.029487  0.029487      4.000000
  0.000000  0.039316  0.029487      8.000000
  0.009829  0.039316  0.029487     16.000000
  0.019658  0.039316  0.029487     16.000000
  0.029487  0.039316  0.029487     16.000000
  0.039316  0.039316  0.029487     16.000000
  0.049145  0.039316  0.029487     16.000000
  0.058974  0.039316  0.029487      8.000000
  0.000000  0.049145  0.029487      8.000000
  0.009829  0.049145  0.029487     16.000000
  0.019658  0.049145  0.029487     16.000000
  0.029487  0.049145  0.029487     16.000000
  0.039316  0.049145  0.029487     16.000000
  0.049145  0.049145  0.029487     16.000000
  0.058974  0.049145  0.029487      8.000000
  0.000000  0.058974  0.029487      4.000000
  0.009829  0.058974  0.029487      8.000000
  0.019658  0.058974  0.029487      8.000000
  0.029487  0.058974  0.029487      8.000000
  0.039316  0.058974  0.029487      8.000000
  0.049145  0.058974  0.029487      8.000000
  0.058974  0.058974  0.029487      4.000000
  0.000000  0.039316  0.039316      4.000000
  0.009829  0.039316  0.039316      8.000000
  0.019658  0.039316  0.039316      8.000000
  0.029487  0.039316  0.039316      8.000000
  0.039316  0.039316  0.039316      8.000000
  0.049145  0.039316  0.039316      8.000000
  0.058974  0.039316  0.039316      4.000000
  0.000000  0.049145  0.039316      8.000000
  0.009829  0.049145  0.039316     16.000000
  0.019658  0.049145  0.039316     16.000000
  0.029487  0.049145  0.039316     16.000000
  0.039316  0.049145  0.039316     16.000000
  0.049145  0.049145  0.039316     16.000000
  0.058974  0.049145  0.039316      8.000000
  0.000000  0.058974  0.039316      4.000000
  0.009829  0.058974  0.039316      8.000000
  0.019658  0.058974  0.039316      8.000000
  0.029487  0.058974  0.039316      8.000000
  0.039316  0.058974  0.039316      8.000000
  0.049145  0.058974  0.039316      8.000000
  0.058974  0.058974  0.039316      4.000000
  0.000000  0.049145  0.049145      4.000000
  0.009829  0.049145  0.049145      8.000000
  0.019658  0.049145  0.049145      8.000000
  0.029487  0.049145  0.049145      8.000000
  0.039316  0.049145  0.049145      8.000000
  0.049145  0.049145  0.049145      8.000000
  0.058974  0.049145  0.049145      4.000000
  0.000000  0.058974  0.049145      4.000000
  0.009829  0.058974  0.049145      8.000000
  0.019658  0.058974  0.049145      8.000000
  0.029487  0.058974  0.049145      8.000000
  0.039316  0.058974  0.049145      8.000000
  0.049145  0.058974  0.049145      8.000000
  0.058974  0.058974  0.049145      4.000000
  0.000000  0.058974  0.058974      1.000000
  0.009829  0.058974  0.058974      2.000000
  0.019658  0.058974  0.058974      2.000000
  0.029487  0.058974  0.058974      2.000000
  0.039316  0.058974  0.058974      2.000000
  0.049145  0.058974  0.058974      2.000000
  0.058974  0.058974  0.058974      1.000000
 


--------------------------------------------------------------------------------------------------------




 Dimension of arrays:
   k-Points           NKPTS =    196   number of bands    NBANDS=     68
   number of dos      NEDOS =    301   number of ions     NIONS =     32
   non local maximal  LDIM  =      4   non local SUM 2l+1 LMDIM =      8
   total plane-waves  NPLWV = 512000
   max r-space proj   IRMAX =      1   max aug-charges    IRDMAX= 261744
   dimension x,y,z NGX =    80 NGY =   80 NGZ =   80
   dimension x,y,z NGXF=   160 NGYF=  160 NGZF=  160
   support grid    NGXF=   320 NGYF=  320 NGZF=  320
   ions per type =              32
 NGX,Y,Z   is equivalent  to a cutoff of  15.69, 15.69, 15.69 a.u.
 NGXF,Y,Z  is equivalent  to a cutoff of  31.37, 31.37, 31.37 a.u.


 I would recommend the setting:
   dimension x,y,z NGX =    76 NGY =   76 NGZ =   76
 SYSTEM =  unknown system                          
 POSCAR =  Al                                      

 Startparameter for this run:
   NWRITE =      2    write-flag & timer
   PREC   = accura    medium, high low
   ISTART =      0    job   : 0-new  1-cont  2-samecut
   ICHARG =      2    charge: 1-file 2-atom 10-const
   ISPIN  =      1    spin polarized calculation?
   LNONCOLLINEAR =      F non collinear calculations
   LSORBIT =      F    spin-orbit coupling
   INIWAV =      1    electr: 0-lowe 1-rand  2-diag
   LASPH  =      F    aspherical Exc in radial PAW
   METAGGA=      F    non-selfconsistent MetaGGA calc.

 Electronic Relaxation 1
   ENCUT  =  750.0 eV  55.12 Ry    7.42 a.u.  18.93 18.93 18.93*2*pi/ulx,y,z
   ENINI  =  750.0     initial cutoff
   ENAUG  =  291.1 eV  augmentation charge cutoff
   NELM   =     60;   NELMIN=  2; NELMDL=  0     # of ELM steps 
   EDIFF  = 0.1E-07   stopping-criterion for ELM
   LREAL  =      F    real-space projection
   LCOMPAT=      F    compatible to vasp.4.4
   LREAL_COMPAT= F    compatible to vasp.4.5.1-3
   GGA_COMPAT  = T    GGA compatible to vasp.4.4-vasp.4.6
   LMAXPAW     = -100 max onsite density
   LMAXMIX     =    2 max onsite mixed and CHGCAR
   VOSKOWN=      0    Vosko Wilk Nusair interpolation
   ROPT   =    0.00000
 Ionic relaxation
   EDIFFG = 0.1E-06   stopping-criterion for IOM
   NSW    =      0    number of steps for IOM
   NBLOCK =      1;   KBLOCK =      1    inner block; outer block 
   IBRION =     -1    ionic relax: 0-MD 1-quasi-New 2-CG
   NFREE  =      0    steps in history (QN), initial steepest desc. (CG)
   ISIF   =      2    stress and relaxation
   IWAVPR =     10    prediction:  0-non 1-charg 2-wave 3-comb
   ISYM   =      2    0-nonsym 1-usesym 2-fastsym
   LCORR  =      T    Harris-Foulkes like correction to forces

   POTIM  =   0.50    time-step for ionic-motion
   TEIN   =    0.0    initial temperature
   TEBEG  =    0.0;   TEEND  =   0.0 temperature during run
   SMASS  =  -3.00    Nose mass-parameter (am)
   estimated Nose-frequenzy (Omega)   =  0.10E-29 period in steps =****** mass=  -0.164E-26a.u.
   NPACO  =    256;   APACO  = 16.0  distance and # of slots for P.C.
   PSTRESS=    0.0 pullay stress

  Mass of Ions in am
   POMASS =  26.98
  Ionic Valenz
   ZVAL   =   3.00
  Atomic Wigner-Seitz radii
   RWIGS  =  -1.00
   NELECT =      96.0000    total number of electrons
   NUPDOWN=      -1.0000    fix difference up-down

 DOS related values:
   EMIN   =  10.00;   EMAX   =-10.00  energy-range for DOS
   ISMEAR =     0;   SIGMA  =   0.01  broadening in eV -4-tet -1-fermi 0-gaus

 Electronic relaxation 2 (details)
   IALGO  =     38    algorithm
   LDIAG  =      T    sub-space diagonalisation
   IMIX   =      4    mixing-type and parameters
     AMIX     =   0.40;   BMIX     =  1.00
     AMIX_MAG =   1.60;   BMIX_MAG =  1.00
     AMIN     =   0.10
     WC   =   100.;   INIMIX=   1;  MIXPRE=   1

 Intra band minimization:
   WEIMIN = 0.0000     energy-eigenvalue tresh-hold
   EBREAK =  0.38E-10  absolut break condition
   DEPER  =   0.30     relativ break condition  

   TIME   =   0.10     timestep for ELM

  volume/ion in A,a.u.               =      19.05       128.52
  Fermi-wavevector in a.u.,eV,Ry     =   0.884140 10.635716  0.781703

 Second variation
   LSECVAR=     F    do a second variation
 
 Write flags
   LWAVE  =      F    write WAVECAR
   LCHARG =      F    write CHGCAR
   LVTOT  =      F    write LOCPOT, local potential
   LELF   =      F    write electronic localiz. function (ELF)
   LORBIT =      0    0 simple, 1 ext, 2 COOP (PROOUT)


 Dipole corrections
   IDIPOL =      0    1-x, 2-y, 3-z
   LDIPOL =      F    correct potential



--------------------------------------------------------------------------------------------------------


 Static calculation
 charge density will be updated during run
 non-spin polarized calculation
 Variant of blocked Davidson
 Davidson routine will perform the subspace rotation
 performe sub-space diagonalisation
    after iterative eigenvector-optimisation
 modified Broyden-mixing scheme, WC =      100.0
 initial mixing is a Kerker type mixing with AMIX =  0.4000 and BMIX =      1.0000
 Hartree-type preconditioning will be used
 using additional bands           20
 reciprocal scheme for non local part
 use partial core corrections
 calculate Harris-corrections to forces 
   (improved forces if not selfconsistent)
 use gradient corrections 
 use of overlap-Matrix (Vanderbilt PP)
 Gauss-broadening in eV      SIGMA  =   0.01


--------------------------------------------------------------------------------------------------------


  energy-cutoff  :      750.00
  volume of cell :      609.44
      direct lattice vectors                 reciprocal lattice vectors
     8.478343376  0.000000000  0.000000000     0.117947570  0.000000000  0.000000000
     0.000000000  8.478343376  0.000000000     0.000000000  0.117947570  0.000000000
     0.000000000  0.000000000  8.478343376     0.000000000  0.000000000  0.117947570

  length of vectors
     8.478343376  8.478343376  8.478343376     0.117947570  0.117947570  0.117947570


 
 k-points in units of 2pi/SCALE and weight: Automatic mesh                          
   0.00000000  0.00000000  0.00000000       0.001
   0.00982896  0.00000000  0.00000000       0.001
   0.01965793  0.00000000  0.00000000       0.001
   0.02948689  0.00000000  0.00000000       0.001
   0.03931586  0.00000000  0.00000000       0.001
   0.04914482  0.00000000  0.00000000       0.001
   0.05897379  0.00000000  0.00000000       0.001
   0.00000000  0.00982896  0.00000000       0.002
   0.00982896  0.00982896  0.00000000       0.005
   0.01965793  0.00982896  0.00000000       0.005
   0.02948689  0.00982896  0.00000000       0.005
   0.03931586  0.00982896  0.00000000       0.005
   0.04914482  0.00982896  0.00000000       0.005
   0.05897379  0.00982896  0.00000000       0.002
   0.00000000  0.01965793  0.00000000       0.002
   0.00982896  0.01965793  0.00000000       0.005
   0.01965793  0.01965793  0.00000000       0.005
   0.02948689  0.01965793  0.00000000       0.005
   0.03931586  0.01965793  0.00000000       0.005
   0.04914482  0.01965793  0.00000000       0.005
   0.05897379  0.01965793  0.00000000       0.002
   0.00000000  0.02948689  0.00000000       0.002
   0.00982896  0.02948689  0.00000000       0.005
   0.01965793  0.02948689  0.00000000       0.005
   0.02948689  0.02948689  0.00000000       0.005
   0.03931586  0.02948689  0.00000000       0.005
   0.04914482  0.02948689  0.00000000       0.005
   0.05897379  0.02948689  0.00000000       0.002
   0.00000000  0.03931586  0.00000000       0.002
   0.00982896  0.03931586  0.00000000       0.005
   0.01965793  0.03931586  0.00000000       0.005
   0.02948689  0.03931586  0.00000000       0.005
   0.03931586  0.03931586  0.00000000       0.005
   0.04914482  0.03931586  0.00000000       0.005
   0.05897379  0.03931586  0.00000000       0.002
   0.00000000  0.04914482  0.00000000       0.002
   0.00982896  0.04914482  0.00000000       0.005
   0.01965793  0.04914482  0.00000000       0.005
   0.02948689  0.04914482  0.00000000       0.005
   0.03931586  0.04914482  0.00000000       0.005
   0.04914482  0.04914482  0.00000000       0.005
   0.05897379  0.04914482  0.00000000       0.002
   0.00000000  0.05897379  0.00000000       0.001
   0.00982896  0.05897379  0.00000000       0.002
   0.01965793  0.05897379  0.00000000       0.002
   0.02948689  0.05897379  0.00000000       0.002
   0.03931586  0.05897379  0.00000000       0.002
   0.04914482  0.05897379  0.00000000       0.002
   0.05897379  0.05897379  0.00000000       0.001
   0.00000000  0.00982896  0.00982896       0.002
   0.00982896  0.00982896  0.00982896       0.005
   0.01965793  0.00982896  0.00982896       0.005
   0.02948689  0.00982896  0.00982896       0.005
   0.03931586  0.00982896  0.00982896       0.005
   0.04914482  0.00982896  0.00982896       0.005
   0.05897379  0.00982896  0.00982896       0.002
   0.00000000  0.01965793  0.00982896       0.005
   0.00982896  0.01965793  0.00982896       0.009
   0.01965793  0.01965793  0.00982896       0.009
   0.02948689  0.01965793  0.00982896       0.009
   0.03931586  0.01965793  0.00982896       0.009
   0.04914482  0.01965793  0.00982896       0.009
   0.05897379  0.01965793  0.00982896       0.005
   0.00000000  0.02948689  0.00982896       0.005
   0.00982896  0.02948689  0.00982896       0.009
   0.01965793  0.02948689  0.00982896       0.009
   0.02948689  0.02948689  0.00982896       0.009
   0.03931586  0.02948689  0.00982896       0.009
   0.04914482  0.02948689  0.00982896       0.009
   0.05897379  0.02948689  0.00982896       0.005
   0.00000000  0.03931586  0.00982896       0.005
   0.00982896  0.03931586  0.00982896       0.009
   0.01965793  0.03931586  0.00982896       0.009
   0.02948689  0.03931586  0.00982896       0.009
   0.03931586  0.03931586  0.00982896       0.009
   0.04914482  0.03931586  0.00982896       0.009
   0.05897379  0.03931586  0.00982896       0.005
   0.00000000  0.04914482  0.00982896       0.005
   0.00982896  0.04914482  0.00982896       0.009
   0.01965793  0.04914482  0.00982896       0.009
   0.02948689  0.04914482  0.00982896       0.009
   0.03931586  0.04914482  0.00982896       0.009
   0.04914482  0.04914482  0.00982896       0.009
   0.05897379  0.04914482  0.00982896       0.005
   0.00000000  0.05897379  0.00982896       0.002
   0.00982896  0.05897379  0.00982896       0.005
   0.01965793  0.05897379  0.00982896       0.005
   0.02948689  0.05897379  0.00982896       0.005
   0.03931586  0.05897379  0.00982896       0.005
   0.04914482  0.05897379  0.00982896       0.005
   0.05897379  0.05897379  0.00982896       0.002
   0.00000000  0.01965793  0.01965793       0.002
   0.00982896  0.01965793  0.01965793       0.005
   0.01965793  0.01965793  0.01965793       0.005
   0.02948689  0.01965793  0.01965793       0.005
   0.03931586  0.01965793  0.01965793       0.005
   0.04914482  0.01965793  0.01965793       0.005
   0.05897379  0.01965793  0.01965793       0.002
   0.00000000  0.02948689  0.01965793       0.005
   0.00982896  0.02948689  0.01965793       0.009
   0.01965793  0.02948689  0.01965793       0.009
   0.02948689  0.02948689  0.01965793       0.009
   0.03931586  0.02948689  0.01965793       0.009
   0.04914482  0.02948689  0.01965793       0.009
   0.05897379  0.02948689  0.01965793       0.005
   0.00000000  0.03931586  0.01965793       0.005
   0.00982896  0.03931586  0.01965793       0.009
   0.01965793  0.03931586  0.01965793       0.009
   0.02948689  0.03931586  0.01965793       0.009
   0.03931586  0.03931586  0.01965793       0.009
   0.04914482  0.03931586  0.01965793       0.009
   0.05897379  0.03931586  0.01965793       0.005
   0.00000000  0.04914482  0.01965793       0.005
   0.00982896  0.04914482  0.01965793       0.009
   0.01965793  0.04914482  0.01965793       0.009
   0.02948689  0.04914482  0.01965793       0.009
   0.03931586  0.04914482  0.01965793       0.009
   0.04914482  0.04914482  0.01965793       0.009
   0.05897379  0.04914482  0.01965793       0.005
   0.00000000  0.05897379  0.01965793       0.002
   0.00982896  0.05897379  0.01965793       0.005
   0.01965793  0.05897379  0.01965793       0.005
   0.02948689  0.05897379  0.01965793       0.005
   0.03931586  0.05897379  0.01965793       0.005
   0.04914482  0.05897379  0.01965793       0.005
   0.05897379  0.05897379  0.01965793       0.002
   0.00000000  0.02948689  0.02948689       0.002
   0.00982896  0.02948689  0.02948689       0.005
   0.01965793  0.02948689  0.02948689       0.005
   0.02948689  0.02948689  0.02948689       0.005
   0.03931586  0.02948689  0.02948689       0.005
   0.04914482  0.02948689  0.02948689       0.005
   0.05897379  0.02948689  0.02948689       0.002
   0.00000000  0.03931586  0.02948689       0.005
   0.00982896  0.03931586  0.02948689       0.009
   0.01965793  0.03931586  0.02948689       0.009
   0.02948689  0.03931586  0.02948689       0.009
   0.03931586  0.03931586  0.02948689       0.009
   0.04914482  0.03931586  0.02948689       0.009
   0.05897379  0.03931586  0.02948689       0.005
   0.00000000  0.04914482  0.02948689       0.005
   0.00982896  0.04914482  0.02948689       0.009
   0.01965793  0.04914482  0.02948689       0.009
   0.02948689  0.04914482  0.02948689       0.009
   0.03931586  0.04914482  0.02948689       0.009
   0.04914482  0.04914482  0.02948689       0.009
   0.05897379  0.04914482  0.02948689       0.005
   0.00000000  0.05897379  0.02948689       0.002
   0.00982896  0.05897379  0.02948689       0.005
   0.01965793  0.05897379  0.02948689       0.005
   0.02948689  0.05897379  0.02948689       0.005
   0.03931586  0.05897379  0.02948689       0.005
   0.04914482  0.05897379  0.02948689       0.005
   0.05897379  0.05897379  0.02948689       0.002
   0.00000000  0.03931586  0.03931586       0.002
   0.00982896  0.03931586  0.03931586       0.005
   0.01965793  0.03931586  0.03931586       0.005
   0.02948689  0.03931586  0.03931586       0.005
   0.03931586  0.03931586  0.03931586       0.005
   0.04914482  0.03931586  0.03931586       0.005
   0.05897379  0.03931586  0.03931586       0.002
   0.00000000  0.04914482  0.03931586       0.005
   0.00982896  0.04914482  0.03931586       0.009
   0.01965793  0.04914482  0.03931586       0.009
   0.02948689  0.04914482  0.03931586       0.009
   0.03931586  0.04914482  0.03931586       0.009
   0.04914482  0.04914482  0.03931586       0.009
   0.05897379  0.04914482  0.03931586       0.005
   0.00000000  0.05897379  0.03931586       0.002
   0.00982896  0.05897379  0.03931586       0.005
   0.01965793  0.05897379  0.03931586       0.005
   0.02948689  0.05897379  0.03931586       0.005
   0.03931586  0.05897379  0.03931586       0.005
   0.04914482  0.05897379  0.03931586       0.005
   0.05897379  0.05897379  0.03931586       0.002
   0.00000000  0.04914482  0.04914482       0.002
   0.00982896  0.04914482  0.04914482       0.005
   0.01965793  0.04914482  0.04914482       0.005
   0.02948689  0.04914482  0.04914482       0.005
   0.03931586  0.04914482  0.04914482       0.005
   0.04914482  0.04914482  0.04914482       0.005
   0.05897379  0.04914482  0.04914482       0.002
   0.00000000  0.05897379  0.04914482       0.002
   0.00982896  0.05897379  0.04914482       0.005
   0.01965793  0.05897379  0.04914482       0.005
   0.02948689  0.05897379  0.04914482       0.005
   0.03931586  0.05897379  0.04914482       0.005
   0.04914482  0.05897379  0.04914482       0.005
   0.05897379  0.05897379  0.04914482       0.002
   0.00000000  0.05897379  0.05897379       0.001
   0.00982896  0.05897379  0.05897379       0.001
   0.01965793  0.05897379  0.05897379       0.001
   0.02948689  0.05897379  0.05897379       0.001
   0.03931586  0.05897379  0.05897379       0.001
   0.04914482  0.05897379  0.05897379       0.001
   0.05897379  0.05897379  0.05897379       0.001
 
 k-points in reciprocal lattice and weights: Automatic mesh                          
   0.00000000  0.00000000  0.00000000       0.001
   0.08333333  0.00000000  0.00000000       0.001
   0.16666667  0.00000000  0.00000000       0.001
   0.25000000  0.00000000  0.00000000       0.001
   0.33333333  0.00000000  0.00000000       0.001
   0.41666667  0.00000000  0.00000000       0.001
   0.50000000  0.00000000  0.00000000       0.001
   0.00000000  0.08333333  0.00000000       0.002
   0.08333333  0.08333333  0.00000000       0.005
   0.16666667  0.08333333  0.00000000       0.005
   0.25000000  0.08333333  0.00000000       0.005
   0.33333333  0.08333333  0.00000000       0.005
   0.41666667  0.08333333  0.00000000       0.005
   0.50000000  0.08333333  0.00000000       0.002
   0.00000000  0.16666667  0.00000000       0.002
   0.08333333  0.16666667  0.00000000       0.005
   0.16666667  0.16666667  0.00000000       0.005
   0.25000000  0.16666667  0.00000000       0.005
   0.33333333  0.16666667  0.00000000       0.005
   0.41666667  0.16666667  0.00000000       0.005
   0.50000000  0.16666667  0.00000000       0.002
   0.00000000  0.25000000  0.00000000       0.002
   0.08333333  0.25000000  0.00000000       0.005
   0.16666667  0.25000000  0.00000000       0.005
   0.25000000  0.25000000  0.00000000       0.005
   0.33333333  0.25000000  0.00000000       0.005
   0.41666667  0.25000000  0.00000000       0.005
   0.50000000  0.25000000  0.00000000       0.002
   0.00000000  0.33333333  0.00000000       0.002
   0.08333333  0.33333333  0.00000000       0.005
   0.16666667  0.33333333  0.00000000       0.005
   0.25000000  0.33333333  0.00000000       0.005
   0.33333333  0.33333333  0.00000000       0.005
   0.41666667  0.33333333  0.00000000       0.005
   0.50000000  0.33333333  0.00000000       0.002
   0.00000000  0.41666667  0.00000000       0.002
   0.08333333  0.41666667  0.00000000       0.005
   0.16666667  0.41666667  0.00000000       0.005
   0.25000000  0.41666667  0.00000000       0.005
   0.33333333  0.41666667  0.00000000       0.005
   0.41666667  0.41666667  0.00000000       0.005
   0.50000000  0.41666667  0.00000000       0.002
   0.00000000  0.50000000  0.00000000       0.001
   0.08333333  0.50000000  0.00000000       0.002
   0.16666667  0.50000000  0.00000000       0.002
   0.25000000  0.50000000  0.00000000       0.002
   0.33333333  0.50000000  0.00000000       0.002
   0.41666667  0.50000000  0.00000000       0.002
   0.50000000  0.50000000  0.00000000       0.001
   0.00000000  0.08333333  0.08333333       0.002
   0.08333333  0.08333333  0.08333333       0.005
   0.16666667  0.08333333  0.08333333       0.005
   0.25000000  0.08333333  0.08333333       0.005
   0.33333333  0.08333333  0.08333333       0.005
   0.41666667  0.08333333  0.08333333       0.005
   0.50000000  0.08333333  0.08333333       0.002
   0.00000000  0.16666667  0.08333333       0.005
   0.08333333  0.16666667  0.08333333       0.009
   0.16666667  0.16666667  0.08333333       0.009
   0.25000000  0.16666667  0.08333333       0.009
   0.33333333  0.16666667  0.08333333       0.009
   0.41666667  0.16666667  0.08333333       0.009
   0.50000000  0.16666667  0.08333333       0.005
   0.00000000  0.25000000  0.08333333       0.005
   0.08333333  0.25000000  0.08333333       0.009
   0.16666667  0.25000000  0.08333333       0.009
   0.25000000  0.25000000  0.08333333       0.009
   0.33333333  0.25000000  0.08333333       0.009
   0.41666667  0.25000000  0.08333333       0.009
   0.50000000  0.25000000  0.08333333       0.005
   0.00000000  0.33333333  0.08333333       0.005
   0.08333333  0.33333333  0.08333333       0.009
   0.16666667  0.33333333  0.08333333       0.009
   0.25000000  0.33333333  0.08333333       0.009
   0.33333333  0.33333333  0.08333333       0.009
   0.41666667  0.33333333  0.08333333       0.009
   0.50000000  0.33333333  0.08333333       0.005
   0.00000000  0.41666667  0.08333333       0.005
   0.08333333  0.41666667  0.08333333       0.009
   0.16666667  0.41666667  0.08333333       0.009
   0.25000000  0.41666667  0.08333333       0.009
   0.33333333  0.41666667  0.08333333       0.009
   0.41666667  0.41666667  0.08333333       0.009
   0.50000000  0.41666667  0.08333333       0.005
   0.00000000  0.50000000  0.08333333       0.002
   0.08333333  0.50000000  0.08333333       0.005
   0.16666667  0.50000000  0.08333333       0.005
   0.25000000  0.50000000  0.08333333       0.005
   0.33333333  0.50000000  0.08333333       0.005
   0.41666667  0.50000000  0.08333333       0.005
   0.50000000  0.50000000  0.08333333       0.002
   0.00000000  0.16666667  0.16666667       0.002
   0.08333333  0.16666667  0.16666667       0.005
   0.16666667  0.16666667  0.16666667       0.005
   0.25000000  0.16666667  0.16666667       0.005
   0.33333333  0.16666667  0.16666667       0.005
   0.41666667  0.16666667  0.16666667       0.005
   0.50000000  0.16666667  0.16666667       0.002
   0.00000000  0.25000000  0.16666667       0.005
   0.08333333  0.25000000  0.16666667       0.009
   0.16666667  0.25000000  0.16666667       0.009
   0.25000000  0.25000000  0.16666667       0.009
   0.33333333  0.25000000  0.16666667       0.009
   0.41666667  0.25000000  0.16666667       0.009
   0.50000000  0.25000000  0.16666667       0.005
   0.00000000  0.33333333  0.16666667       0.005
   0.08333333  0.33333333  0.16666667       0.009
   0.16666667  0.33333333  0.16666667       0.009
   0.25000000  0.33333333  0.16666667       0.009
   0.33333333  0.33333333  0.16666667       0.009
   0.41666667  0.33333333  0.16666667       0.009
   0.50000000  0.33333333  0.16666667       0.005
   0.00000000  0.41666667  0.16666667       0.005
   0.08333333  0.41666667  0.16666667       0.009
   0.16666667  0.41666667  0.16666667       0.009
   0.25000000  0.41666667  0.16666667       0.009
   0.33333333  0.41666667  0.16666667       0.009
   0.41666667  0.41666667  0.16666667       0.009
   0.50000000  0.41666667  0.16666667       0.005
   0.00000000  0.50000000  0.16666667       0.002
   0.08333333  0.50000000  0.16666667       0.005
   0.16666667  0.50000000  0.16666667       0.005
   0.25000000  0.50000000  0.16666667       0.005
   0.33333333  0.50000000  0.16666667       0.005
   0.41666667  0.50000000  0.16666667       0.005
   0.50000000  0.50000000  0.16666667       0.002
   0.00000000  0.25000000  0.25000000       0.002
   0.08333333  0.25000000  0.25000000       0.005
   0.16666667  0.25000000  0.25000000       0.005
   0.25000000  0.25000000  0.25000000       0.005
   0.33333333  0.25000000  0.25000000       0.005
   0.41666667  0.25000000  0.25000000       0.005
   0.50000000  0.25000000  0.25000000       0.002
   0.00000000  0.33333333  0.25000000       0.005
   0.08333333  0.33333333  0.25000000       0.009
   0.16666667  0.33333333  0.25000000       0.009
   0.25000000  0.33333333  0.25000000       0.009
   0.33333333  0.33333333  0.25000000       0.009
   0.41666667  0.33333333  0.25000000       0.009
   0.50000000  0.33333333  0.25000000       0.005
   0.00000000  0.41666667  0.25000000       0.005
   0.08333333  0.41666667  0.25000000       0.009
   0.16666667  0.41666667  0.25000000       0.009
   0.25000000  0.41666667  0.25000000       0.009
   0.33333333  0.41666667  0.25000000       0.009
   0.41666667  0.41666667  0.25000000       0.009
   0.50000000  0.41666667  0.25000000       0.005
   0.00000000  0.50000000  0.25000000       0.002
   0.08333333  0.50000000  0.25000000       0.005
   0.16666667  0.50000000  0.25000000       0.005
   0.25000000  0.50000000  0.25000000       0.005
   0.33333333  0.50000000  0.25000000       0.005
   0.41666667  0.50000000  0.25000000       0.005
   0.50000000  0.50000000  0.25000000       0.002
   0.00000000  0.33333333  0.33333333       0.002
   0.08333333  0.33333333  0.33333333       0.005
   0.16666667  0.33333333  0.33333333       0.005
   0.25000000  0.33333333  0.33333333       0.005
   0.33333333  0.33333333  0.33333333       0.005
   0.41666667  0.33333333  0.33333333       0.005
   0.50000000  0.33333333  0.33333333       0.002
   0.00000000  0.41666667  0.33333333       0.005
   0.08333333  0.41666667  0.33333333       0.009
   0.16666667  0.41666667  0.33333333       0.009
   0.25000000  0.41666667  0.33333333       0.009
   0.33333333  0.41666667  0.33333333       0.009
   0.41666667  0.41666667  0.33333333       0.009
   0.50000000  0.41666667  0.33333333       0.005
   0.00000000  0.50000000  0.33333333       0.002
   0.08333333  0.50000000  0.33333333       0.005
   0.16666667  0.50000000  0.33333333       0.005
   0.25000000  0.50000000  0.33333333       0.005
   0.33333333  0.50000000  0.33333333       0.005
   0.41666667  0.50000000  0.33333333       0.005
   0.50000000  0.50000000  0.33333333       0.002
   0.00000000  0.41666667  0.41666667       0.002
   0.08333333  0.41666667  0.41666667       0.005
   0.16666667  0.41666667  0.41666667       0.005
   0.25000000  0.41666667  0.41666667       0.005
   0.33333333  0.41666667  0.41666667       0.005
   0.41666667  0.41666667  0.41666667       0.005
   0.50000000  0.41666667  0.41666667       0.002
   0.00000000  0.50000000  0.41666667       0.002
   0.08333333  0.50000000  0.41666667       0.005
   0.16666667  0.50000000  0.41666667       0.005
   0.25000000  0.50000000  0.41666667       0.005
   0.33333333  0.50000000  0.41666667       0.005
   0.41666667  0.50000000  0.41666667       0.005
   0.50000000  0.50000000  0.41666667       0.002
   0.00000000  0.50000000  0.50000000       0.001
   0.08333333  0.50000000  0.50000000       0.001
   0.16666667  0.50000000  0.50000000       0.001
   0.25000000  0.50000000  0.50000000       0.001
   0.33333333  0.50000000  0.50000000       0.001
   0.41666667  0.50000000  0.50000000       0.001
   0.50000000  0.50000000  0.50000000       0.001
 
 position of ions in fractional coordinates (direct lattice) 
   0.25117948  0.25000000  0.00000000
   0.75000000  0.25000000  0.00000000
   0.25000000  0.75000000  0.00000000
   0.75000000  0.75000000  0.00000000
   0.25000000  0.25000000  0.50000000
   0.75000000  0.25000000  0.50000000
   0.25000000  0.75000000  0.50000000
   0.75000000  0.75000000  0.50000000
   0.25000000  0.00000000  0.25000000
   0.75000000  0.00000000  0.25000000
   0.25000000  0.50000000  0.25000000
   0.75000000  0.50000000  0.25000000
   0.25000000  0.00000000  0.75000000
   0.75000000  0.00000000  0.75000000
   0.25000000  0.50000000  0.75000000
   0.75000000  0.50000000  0.75000000
   0.00000000  0.25000000  0.25000000
   0.50000000  0.25000000  0.25000000
   0.00000000  0.75000000  0.25000000
   0.50000000  0.75000000  0.25000000
   0.00000000  0.25000000  0.75000000
   0.50000000  0.25000000  0.75000000
   0.00000000  0.75000000  0.75000000
   0.50000000  0.75000000  0.75000000
   0.00000000  0.00000000  0.00000000
   0.50000000  0.00000000  0.00000000
   0.00000000  0.50000000  0.00000000
   0.50000000  0.50000000  0.00000000
   0.00000000  0.00000000  0.50000000
   0.50000000  0.00000000  0.50000000
   0.00000000  0.50000000  0.50000000
   0.50000000  0.50000000  0.50000000
 
 position of ions in cartesian coordinates  (Angst):
   2.12958584  2.11958584  0.00000000
   6.35875753  2.11958584  0.00000000
   2.11958584  6.35875753  0.00000000
   6.35875753  6.35875753  0.00000000
   2.11958584  2.11958584  4.23917169
   6.35875753  2.11958584  4.23917169
   2.11958584  6.35875753  4.23917169
   6.35875753  6.35875753  4.23917169
   2.11958584  0.00000000  2.11958584
   6.35875753  0.00000000  2.11958584
   2.11958584  4.23917169  2.11958584
   6.35875753  4.23917169  2.11958584
   2.11958584  0.00000000  6.35875753
   6.35875753  0.00000000  6.35875753
   2.11958584  4.23917169  6.35875753
   6.35875753  4.23917169  6.35875753
   0.00000000  2.11958584  2.11958584
   4.23917169  2.11958584  2.11958584
   0.00000000  6.35875753  2.11958584
   4.23917169  6.35875753  2.11958584
   0.00000000  2.11958584  6.35875753
   4.23917169  2.11958584  6.35875753
   0.00000000  6.35875753  6.35875753
   4.23917169  6.35875753  6.35875753
   0.00000000  0.00000000  0.00000000
   4.23917169  0.00000000  0.00000000
   0.00000000  4.23917169  0.00000000
   4.23917169  4.23917169  0.00000000
   0.00000000  0.00000000  4.23917169
   4.23917169  0.00000000  4.23917169
   0.00000000  4.23917169  4.23917169
   4.23917169  4.23917169  4.23917169
 


--------------------------------------------------------------------------------------------------------


 k-point  1 :  0.00000.00000.0000  plane waves:  28425
 k-point  2 :  0.08330.00000.0000  plane waves:  28398
 k-point  3 :  0.16670.00000.0000  plane waves:  28406
 k-point  4 :  0.25000.00000.0000  plane waves:  28406
 k-point  5 :  0.33330.00000.0000  plane waves:  28354
 k-point  6 :  0.41670.00000.0000  plane waves:  28386
 k-point  7 :  0.50000.00000.0000  plane waves:  28470
 k-point  8 :  0.00000.08330.0000  plane waves:  28398
 k-point  9 :  0.08330.08330.0000  plane waves:  28395
 k-point 10 :  0.16670.08330.0000  plane waves:  28388
 k-point 11 :  0.25000.08330.0000  plane waves:  28416
 k-point 12 :  0.33330.08330.0000  plane waves:  28389
 k-point 13 :  0.41670.08330.0000  plane waves:  28405
 k-point 14 :  0.50000.08330.0000  plane waves:  28432
 k-point 15 :  0.00000.16670.0000  plane waves:  28406
 k-point 16 :  0.08330.16670.0000  plane waves:  28388
 k-point 17 :  0.16670.16670.0000  plane waves:  28399
 k-point 18 :  0.25000.16670.0000  plane waves:  28395
 k-point 19 :  0.33330.16670.0000  plane waves:  28391
 k-point 20 :  0.41670.16670.0000  plane waves:  28435
 k-point 21 :  0.50000.16670.0000  plane waves:  28416
 k-point 22 :  0.00000.25000.0000  plane waves:  28406
 k-point 23 :  0.08330.25000.0000  plane waves:  28416
 k-point 24 :  0.16670.25000.0000  plane waves:  28395
 k-point 25 :  0.25000.25000.0000  plane waves:  28389
 k-point 26 :  0.33330.25000.0000  plane waves:  28408
 k-point 27 :  0.41670.25000.0000  plane waves:  28438
 k-point 28 :  0.50000.25000.0000  plane waves:  28432
 k-point 29 :  0.00000.33330.0000  plane waves:  28354
 k-point 30 :  0.08330.33330.0000  plane waves:  28389
 k-point 31 :  0.16670.33330.0000  plane waves:  28391
 k-point 32 :  0.25000.33330.0000  plane waves:  28408
 k-point 33 :  0.33330.33330.0000  plane waves:  28421
 k-point 34 :  0.41670.33330.0000  plane waves:  28426
 k-point 35 :  0.50000.33330.0000  plane waves:  28424
 k-point 36 :  0.00000.41670.0000  plane waves:  28386
 k-point 37 :  0.08330.41670.0000  plane waves:  28405
 k-point 38 :  0.16670.41670.0000  plane waves:  28435
 k-point 39 :  0.25000.41670.0000  plane waves:  28438
 k-point 40 :  0.33330.41670.0000  plane waves:  28426
 k-point 41 :  0.41670.41670.0000  plane waves:  28426
 k-point 42 :  0.50000.41670.0000  plane waves:  28432
 k-point 43 :  0.00000.50000.0000  plane waves:  28470
 k-point 44 :  0.08330.50000.0000  plane waves:  28432
 k-point 45 :  0.16670.50000.0000  plane waves:  28416
 k-point 46 :  0.25000.50000.0000  plane waves:  28432
 k-point 47 :  0.33330.50000.0000  plane waves:  28424
 k-point 48 :  0.41670.50000.0000  plane waves:  28432
 k-point 49 :  0.50000.50000.0000  plane waves:  28404
 k-point 50 :  0.00000.08330.0833  plane waves:  28395
 k-point 51 :  0.08330.08330.0833  plane waves:  28408
 k-point 52 :  0.16670.08330.0833  plane waves:  28396
 k-point 53 :  0.25000.08330.0833  plane waves:  28403
 k-point 54 :  0.33330.08330.0833  plane waves:  28397
 k-point 55 :  0.41670.08330.0833  plane waves:  28434
 k-point 56 :  0.50000.08330.0833  plane waves:  28412
 k-point 57 :  0.00000.16670.0833  plane waves:  28388
 k-point 58 :  0.08330.16670.0833  plane waves:  28396
 k-point 59 :  0.16670.16670.0833  plane waves:  28430
 k-point 60 :  0.25000.16670.0833  plane waves:  28384
 k-point 61 :  0.33330.16670.0833  plane waves:  28388
 k-point 62 :  0.41670.16670.0833  plane waves:  28428
 k-point 63 :  0.50000.16670.0833  plane waves:  28418
 k-point 64 :  0.00000.25000.0833  plane waves:  28416
 k-point 65 :  0.08330.25000.0833  plane waves:  28403
 k-point 66 :  0.16670.25000.0833  plane waves:  28384
 k-point 67 :  0.25000.25000.0833  plane waves:  28401
 k-point 68 :  0.33330.25000.0833  plane waves:  28412
 k-point 69 :  0.41670.25000.0833  plane waves:  28441
 k-point 70 :  0.50000.25000.0833  plane waves:  28428
 k-point 71 :  0.00000.33330.0833  plane waves:  28389
 k-point 72 :  0.08330.33330.0833  plane waves:  28397
 k-point 73 :  0.16670.33330.0833  plane waves:  28388
 k-point 74 :  0.25000.33330.0833  plane waves:  28412
 k-point 75 :  0.33330.33330.0833  plane waves:  28442
 k-point 76 :  0.41670.33330.0833  plane waves:  28428
 k-point 77 :  0.50000.33330.0833  plane waves:  28438
 k-point 78 :  0.00000.41670.0833  plane waves:  28405
 k-point 79 :  0.08330.41670.0833  plane waves:  28434
 k-point 80 :  0.16670.41670.0833  plane waves:  28428
 k-point 81 :  0.25000.41670.0833  plane waves:  28441
 k-point 82 :  0.33330.41670.0833  plane waves:  28428
 k-point 83 :  0.41670.41670.0833  plane waves:  28424
 k-point 84 :  0.50000.41670.0833  plane waves:  28412
 k-point 85 :  0.00000.50000.0833  plane waves:  28432
 k-point 86 :  0.08330.50000.0833  plane waves:  28412
 k-point 87 :  0.16670.50000.0833  plane waves:  28418
 k-point 88 :  0.25000.50000.0833  plane waves:  28428
 k-point 89 :  0.33330.50000.0833  plane waves:  28438
 k-point 90 :  0.41670.50000.0833  plane waves:  28412
 k-point 91 :  0.50000.50000.0833  plane waves:  28416
 k-point 92 :  0.00000.16670.1667  plane waves:  28399
 k-point 93 :  0.08330.16670.1667  plane waves:  28430
 k-point 94 :  0.16670.16670.1667  plane waves:  28417
 k-point 95 :  0.25000.16670.1667  plane waves:  28419
 k-point 96 :  0.33330.16670.1667  plane waves:  28414
 k-point 97 :  0.41670.16670.1667  plane waves:  28434
 k-point 98 :  0.50000.16670.1667  plane waves:  28488
 k-point 99 :  0.00000.25000.1667  plane waves:  28395
 k-point ** :  0.08330.25000.1667  plane waves:  28384
 k-point ** :  0.16670.25000.1667  plane waves:  28419
 k-point ** :  0.25000.25000.1667  plane waves:  28422
 k-point ** :  0.33330.25000.1667  plane waves:  28437
 k-point ** :  0.41670.25000.1667  plane waves:  28427
 k-point ** :  0.50000.25000.1667  plane waves:  28440
 k-point ** :  0.00000.33330.1667  plane waves:  28391
 k-point ** :  0.08330.33330.1667  plane waves:  28388
 k-point ** :  0.16670.33330.1667  plane waves:  28414
 k-point ** :  0.25000.33330.1667  plane waves:  28437
 k-point ** :  0.33330.33330.1667  plane waves:  28425
 k-point ** :  0.41670.33330.1667  plane waves:  28425
 k-point ** :  0.50000.33330.1667  plane waves:  28452
 k-point ** :  0.00000.41670.1667  plane waves:  28435
 k-point ** :  0.08330.41670.1667  plane waves:  28428
 k-point ** :  0.16670.41670.1667  plane waves:  28434
 k-point ** :  0.25000.41670.1667  plane waves:  28427
 k-point ** :  0.33330.41670.1667  plane waves:  28425
 k-point ** :  0.41670.41670.1667  plane waves:  28422
 k-point ** :  0.50000.41670.1667  plane waves:  28418
 k-point ** :  0.00000.50000.1667  plane waves:  28416
 k-point ** :  0.08330.50000.1667  plane waves:  28418
 k-point ** :  0.16670.50000.1667  plane waves:  28488
 k-point ** :  0.25000.50000.1667  plane waves:  28440
 k-point ** :  0.33330.50000.1667  plane waves:  28452
 k-point ** :  0.41670.50000.1667  plane waves:  28418
 k-point ** :  0.50000.50000.1667  plane waves:  28392
 k-point ** :  0.00000.25000.2500  plane waves:  28389
 k-point ** :  0.08330.25000.2500  plane waves:  28401
 k-point ** :  0.16670.25000.2500  plane waves:  28422
 k-point ** :  0.25000.25000.2500  plane waves:  28426
 k-point ** :  0.33330.25000.2500  plane waves:  28451
 k-point ** :  0.41670.25000.2500  plane waves:  28444
 k-point ** :  0.50000.25000.2500  plane waves:  28450
 k-point ** :  0.00000.33330.2500  plane waves:  28408
 k-point ** :  0.08330.33330.2500  plane waves:  28412
 k-point ** :  0.16670.33330.2500  plane waves:  28437
 k-point ** :  0.25000.33330.2500  plane waves:  28451
 k-point ** :  0.33330.33330.2500  plane waves:  28440
 k-point ** :  0.41670.33330.2500  plane waves:  28437
 k-point ** :  0.50000.33330.2500  plane waves:  28446
 k-point ** :  0.00000.41670.2500  plane waves:  28438
 k-point ** :  0.08330.41670.2500  plane waves:  28441
 k-point ** :  0.16670.41670.2500  plane waves:  28427
 k-point ** :  0.25000.41670.2500  plane waves:  28444
 k-point ** :  0.33330.41670.2500  plane waves:  28437
 k-point ** :  0.41670.41670.2500  plane waves:  28449
 k-point ** :  0.50000.41670.2500  plane waves:  28432
 k-point ** :  0.00000.50000.2500  plane waves:  28432
 k-point ** :  0.08330.50000.2500  plane waves:  28428
 k-point ** :  0.16670.50000.2500  plane waves:  28440
 k-point ** :  0.25000.50000.2500  plane waves:  28450
 k-point ** :  0.33330.50000.2500  plane waves:  28446
 k-point ** :  0.41670.50000.2500  plane waves:  28432
 k-point ** :  0.50000.50000.2500  plane waves:  28444
 k-point ** :  0.00000.33330.3333  plane waves:  28421
 k-point ** :  0.08330.33330.3333  plane waves:  28442
 k-point ** :  0.16670.33330.3333  plane waves:  28425
 k-point ** :  0.25000.33330.3333  plane waves:  28440
 k-point ** :  0.33330.33330.3333  plane waves:  28486
 k-point ** :  0.41670.33330.3333  plane waves:  28460
 k-point ** :  0.50000.33330.3333  plane waves:  28432
 k-point ** :  0.00000.41670.3333  plane waves:  28426
 k-point ** :  0.08330.41670.3333  plane waves:  28428
 k-point ** :  0.16670.41670.3333  plane waves:  28425
 k-point ** :  0.25000.41670.3333  plane waves:  28437
 k-point ** :  0.33330.41670.3333  plane waves:  28460
 k-point ** :  0.41670.41670.3333  plane waves:  28454
 k-point ** :  0.50000.41670.3333  plane waves:  28448
 k-point ** :  0.00000.50000.3333  plane waves:  28424
 k-point ** :  0.08330.50000.3333  plane waves:  28438
 k-point ** :  0.16670.50000.3333  plane waves:  28452
 k-point ** :  0.25000.50000.3333  plane waves:  28446
 k-point ** :  0.33330.50000.3333  plane waves:  28432
 k-point ** :  0.41670.50000.3333  plane waves:  28448
 k-point ** :  0.50000.50000.3333  plane waves:  28432
 k-point ** :  0.00000.41670.4167  plane waves:  28426
 k-point ** :  0.08330.41670.4167  plane waves:  28424
 k-point ** :  0.16670.41670.4167  plane waves:  28422
 k-point ** :  0.25000.41670.4167  plane waves:  28449
 k-point ** :  0.33330.41670.4167  plane waves:  28454
 k-point ** :  0.41670.41670.4167  plane waves:  28444
 k-point ** :  0.50000.41670.4167  plane waves:  28426
 k-point ** :  0.00000.50000.4167  plane waves:  28432
 k-point ** :  0.08330.50000.4167  plane waves:  28412
 k-point ** :  0.16670.50000.4167  plane waves:  28418
 k-point ** :  0.25000.50000.4167  plane waves:  28432
 k-point ** :  0.33330.50000.4167  plane waves:  28448
 k-point ** :  0.41670.50000.4167  plane waves:  28426
 k-point ** :  0.50000.50000.4167  plane waves:  28468
 k-point ** :  0.00000.50000.5000  plane waves:  28404
 k-point ** :  0.08330.50000.5000  plane waves:  28416
 k-point ** :  0.16670.50000.5000  plane waves:  28392
 k-point ** :  0.25000.50000.5000  plane waves:  28444
 k-point ** :  0.33330.50000.5000  plane waves:  28432
 k-point ** :  0.41670.50000.5000  plane waves:  28468
 k-point ** :  0.50000.50000.5000  plane waves:  28480

 maximum and minimum number of plane-waves per node :  28488 28354

 maximum number of plane-waves:  28488
 maximal index in each direction: 
   IXMAX= 18   IYMAX= 18   IZMAX= 18
   IXMIN=-19   IYMIN=-19   IZMIN=-19

 NGX is ok and might be reduce to  76
 NGY is ok and might be reduce to  76
 NGZ is ok and might be reduce to  76

 parallel 3dFFT wavefunction:
    minimum data exchange during FFTs selected (reduces bandwidth)
 parallel 3dFFT charge:
    minimum data exchange during FFTs selected (reduces bandwidth)

 For storing wavefunctions 6061.18 MBYTES are necessary
 For predicting wavefunctions   72.68 MBYTES are necessary
Broyden mixing: mesh for mixing (old mesh)
   NGX = 37   NGY = 37   NGZ = 37
  (NGX  =160   NGY  =160   NGZ  =160)
 gives a total of  50653 points
 initial charge density was supplied:
 charge density of overlapping atoms calculated
 number of electron   96.0000000 magnetization 
 keeping initial charge density in first step


--------------------------------------------------------------------------------------------------------


 Maximum index for augmentation-charges        63427 (set IRDMAX)


--------------------------------------------------------------------------------------------------------


 First call to EWALD:  gamma=   0.209
 Maximum number of real-space cells 3x 3x 3
 Maximum number of reciprocal cells 3x 3x 3

    FEWALD:  VPU time    0.01: CPU time    0.01


----------------------------------------- Iteration    1(   1)  ---------------------------------------


    POTLOK:  VPU time    2.74: CPU time    2.75
    SETDIJ:  VPU time    2.43: CPU time    2.44
    EDDAV :  VPU time 2250.79: CPU time 2256.24
    DOS   :  VPU time    0.00: CPU time   -0.00
    ------------------------------------------
      LOOP:  VPU time 2256.02: CPU time 2261.48

 eigenvalue-minimisations  : 26656
 total energy-change (2. order) : 0.1634382E+03  (-0.4085948E+04)
 number of electron   96.0000000 magnetization 
 augmentation part    96.0000000 magnetization 

 Free energy of the ion-electron system (eV)
  ---------------------------------------------------
  alpha Z        PSCENC =        -5.64355352
  Ewald energy   TEWEN  =     -2242.66093683
  -1/2 Hartree   DENC   =        -5.70768390
  -V(xc)+E(xc)   XCENC  =      -847.69235824
  PAW double counting   =      1137.73615723     -115.16745734
  entropy T*S    EENTRO =        -0.00051850
  eigenvalues    EBANDS =       529.33940987
  atomic energy  EATOM  =      1713.23509266
  ---------------------------------------------------
  free energy    TOTEN  =       163.43815143 eV

  energy without entropy =      163.43866993  energy(sigma->0) =      163.43841068


--------------------------------------------------------------------------------------------------------




----------------------------------------- Iteration    1(   2)  ---------------------------------------


    EDDAV :  VPU time 2481.41: CPU time 2484.30
    DOS   :  VPU time    0.00: CPU time   -0.00
    ------------------------------------------
      LOOP:  VPU time 2481.47: CPU time 2484.38

 eigenvalue-minimisations  : 31012
 total energy-change (2. order) :-0.2639946E+03  (-0.2467514E+03)
 number of electron   96.0000000 magnetization 
 augmentation part    96.0000000 magnetization 

 Free energy of the ion-electron system (eV)
  ---------------------------------------------------
  alpha Z        PSCENC =        -5.64355352
  Ewald energy   TEWEN  =     -2242.66093683
  -1/2 Hartree   DENC   =        -5.70768390
  -V(xc)+E(xc)   XCENC  =      -847.69235824
  PAW double counting   =      1137.73615723     -115.16745734
  entropy T*S    EENTRO =        -0.00041546
  eigenvalues    EBANDS =       265.34473243
  atomic energy  EATOM  =      1713.23509266
  ---------------------------------------------------
  free energy    TOTEN  =      -100.55642296 eV

  energy without entropy =     -100.55600751  energy(sigma->0) =     -100.55621524


--------------------------------------------------------------------------------------------------------




----------------------------------------- Iteration    1(   3)  ---------------------------------------


    EDDAV :  VPU time 2625.16: CPU time 2629.52
    DOS   :  VPU time    0.00: CPU time   -0.00
    ------------------------------------------
      LOOP:  VPU time 2625.21: CPU time 2629.58

 eigenvalue-minimisations  : 33440
 total energy-change (2. order) :-0.1717129E+02  (-0.1614969E+02)
 number of electron   96.0000000 magnetization 
 augmentation part    96.0000000 magnetization 

 Free energy of the ion-electron system (eV)
  ---------------------------------------------------
  alpha Z        PSCENC =        -5.64355352
  Ewald energy   TEWEN  =     -2242.66093683
  -1/2 Hartree   DENC   =        -5.70768390
  -V(xc)+E(xc)   XCENC  =      -847.69235824
  PAW double counting   =      1137.73615723     -115.16745734
  entropy T*S    EENTRO =        -0.00040514
  eigenvalues    EBANDS =       248.17343646
  atomic energy  EATOM  =      1713.23509266
  ---------------------------------------------------
  free energy    TOTEN  =      -117.72770861 eV

  energy without entropy =     -117.72730347  energy(sigma->0) =     -117.72750604


--------------------------------------------------------------------------------------------------------




----------------------------------------- Iteration    1(   4)  ---------------------------------------


    EDDAV :  VPU time 2516.41: CPU time 2520.63
    DOS   :  VPU time    0.00: CPU time   -0.00
    ------------------------------------------
      LOOP:  VPU time 2516.46: CPU time 2520.68

 eigenvalue-minimisations  : 31624
 total energy-change (2. order) :-0.4432944E+00  (-0.4376504E+00)
 number of electron   96.0000000 magnetization 
 augmentation part    96.0000000 magnetization 

 Free energy of the ion-electron system (eV)
  ---------------------------------------------------
  alpha Z        PSCENC =        -5.64355352
  Ewald energy   TEWEN  =     -2242.66093683
  -1/2 Hartree   DENC   =        -5.70768390
  -V(xc)+E(xc)   XCENC  =      -847.69235824
  PAW double counting   =      1137.73615723     -115.16745734
  entropy T*S    EENTRO =        -0.00037975
  eigenvalues    EBANDS =       247.73011663
  atomic energy  EATOM  =      1713.23509266
  ---------------------------------------------------
  free energy    TOTEN  =      -118.17100306 eV

  energy without entropy =     -118.17062330  energy(sigma->0) =     -118.17081318


--------------------------------------------------------------------------------------------------------




----------------------------------------- Iteration    1(   5)  ---------------------------------------


    EDDAV :  VPU time 2671.55: CPU time 2675.94
    DOS   :  VPU time    0.00: CPU time   -0.00
    CHARGE:  VPU time  174.97: CPU time  175.29
    MIXING:  VPU time    0.06: CPU time    0.06
    ------------------------------------------
      LOOP:  VPU time 2846.63: CPU time 2851.34

 eigenvalue-minimisations  : 31636
 total energy-change (2. order) :-0.5835531E-02  (-0.5824693E-02)
 number of electron   96.0000000 magnetization 
 augmentation part    -1.2935975 magnetization 

 Broyden mixing:
  rms(total) = 0.49407E+00    rms(broyden)= 0.49407E+00
  rms(prec ) = 0.72199E+00
  weight for this iteration     100.00

 Free energy of the ion-electron system (eV)
  ---------------------------------------------------
  alpha Z        PSCENC =        -5.64355352
  Ewald energy   TEWEN  =     -2242.66093683
  -1/2 Hartree   DENC   =        -5.70768390
  -V(xc)+E(xc)   XCENC  =      -847.69235824
  PAW double counting   =      1137.73615723     -115.16745734
  entropy T*S    EENTRO =        -0.00038233
  eigenvalues    EBANDS =       247.72428368
  atomic energy  EATOM  =      1713.23509266
  ---------------------------------------------------
  free energy    TOTEN  =      -118.17683859 eV

  energy without entropy =     -118.17645625  energy(sigma->0) =     -118.17664742


--------------------------------------------------------------------------------------------------------




----------------------------------------- Iteration    1(   6)  ---------------------------------------


    POTLOK:  VPU time    2.73: CPU time    2.73
    SETDIJ:  VPU time    2.88: CPU time    2.88
    EDDAV :  VPU time 2620.57: CPU time 2622.10
    DOS   :  VPU time    0.00: CPU time   -0.00
    CHARGE:  VPU time  165.88: CPU time  165.98
    MIXING:  VPU time    0.06: CPU time    0.07
    ------------------------------------------
      LOOP:  VPU time 2792.17: CPU time 2793.81

 eigenvalue-minimisations  : 30860
 total energy-change (2. order) : 0.3871015E+00  (-0.7222096E-02)
 number of electron   96.0000000 magnetization 
 augmentation part    -1.3145739 magnetization 

 Broyden mixing:
  rms(total) = 0.30618E+00    rms(broyden)= 0.30618E+00
  rms(prec ) = 0.44895E+00
  weight for this iteration     100.00

 eigenvalues of (default mixing * dielectric matrix)
  average eigenvalue GAMMA=   2.6193
  2.6193

 Free energy of the ion-electron system (eV)
  ---------------------------------------------------
  alpha Z        PSCENC =        -5.64355352
  Ewald energy   TEWEN  =     -2242.66093683
  -1/2 Hartree   DENC   =        -4.26384251
  -V(xc)+E(xc)   XCENC  =      -846.92924752
  PAW double counting   =      1133.95119627     -111.24296391
  entropy T*S    EENTRO =        -0.00038910
  eigenvalues    EBANDS =       245.76490735
  atomic energy  EATOM  =      1713.23509266
  ---------------------------------------------------
  free energy    TOTEN  =      -117.78973710 eV

  energy without entropy =     -117.78934800  energy(sigma->0) =     -117.78954255


--------------------------------------------------------------------------------------------------------




----------------------------------------- Iteration    1(   7)  ---------------------------------------


    POTLOK:  VPU time    3.16: CPU time    3.16
    SETDIJ:  VPU time    2.70: CPU time    2.70
    EDDAV :  VPU time 2542.06: CPU time 2543.54
    DOS   :  VPU time    0.00: CPU time   -0.00
    CHARGE:  VPU time  165.70: CPU time  165.80
    MIXING:  VPU time    0.07: CPU time    0.07
    ------------------------------------------
      LOOP:  VPU time 2713.75: CPU time 2715.34

 eigenvalue-minimisations  : 29656
 total energy-change (2. order) : 0.2784253E+00  (-0.2072226E-01)
 number of electron   96.0000000 magnetization 
 augmentation part    -1.3532695 magnetization 

 Broyden mixing:
  rms(total) = 0.13603E-01    rms(broyden)= 0.13603E-01
  rms(prec ) = 0.16228E-01
  weight for this iteration     100.00

 eigenvalues of (default mixing * dielectric matrix)
  average eigenvalue GAMMA=   2.5068
  2.5068  2.5068

 Free energy of the ion-electron system (eV)
  ---------------------------------------------------
  alpha Z        PSCENC =        -5.64355352
  Ewald energy   TEWEN  =     -2242.66093683
  -1/2 Hartree   DENC   =        -3.25322056
  -V(xc)+E(xc)   XCENC  =      -845.26887760
  PAW double counting   =      1128.51660212     -105.64558993
  entropy T*S    EENTRO =        -0.00040452
  eigenvalues    EBANDS =       243.20957634
  atomic energy  EATOM  =      1713.23509266
  ---------------------------------------------------
  free energy    TOTEN  =      -117.51131184 eV

  energy without entropy =     -117.51090732  energy(sigma->0) =     -117.51110958


[...]
     64       8.4267      0.00000
     65       9.5068      0.00000
     66       9.5068      0.00000
     67       9.5068      0.00000
     68       9.5068      0.00000

 k-point 194 :       0.3333    0.5000    0.5000
  band No.  band energies     occupation 
      1      -2.3450      2.00000
      2      -2.3450      2.00000
      3      -2.3450      2.00000
      4      -2.3450      2.00000
      5      -1.6655      2.00000
      6      -1.6655      2.00000
      7      -1.6655      2.00000
      8      -1.6655      2.00000
      9       1.0237      2.00000
     10       1.0237      2.00000
     11       1.0237      2.00000
     12       1.0237      2.00000
     13       1.6869      2.00000
     14       1.6869      2.00000
     15       1.6870      2.00000
     16       1.6870      2.00000
     17       1.6870      2.00000
     18       1.6870      2.00000
     19       1.6870      2.00000
     20       1.6870      2.00000
     21       2.3491      2.00000
     22       2.3491      2.00000
     23       2.3491      2.00000
     24       2.3491      2.00000
     25       2.3491      2.00000
     26       2.3491      2.00000
     27       2.3492      2.00000
     28       2.3492      2.00000
     29       3.0007      2.00000
     30       3.0007      2.00000
     31       3.0007      2.00000
     32       3.0008      2.00000
     33       4.9758      2.00000
     34       4.9758      2.00000
     35       4.9759      2.00000
     36       4.9759      2.00000
     37       4.9759      2.00000
     38       4.9759      2.00000
     39       4.9759      2.00000
     40       4.9759      2.00000
     41       5.6217      2.00000
     42       5.6217      2.00000
     43       5.6217      2.00000
     44       5.6217      2.00000
     45       6.2701      2.00000
     46       6.2701      2.00000
     47       6.2701      2.00000
     48       6.2701      2.00000
     49       6.9031      0.00000
     50       6.9031      0.00000
     51       6.9031      0.00000
     52       6.9031      0.00000
     53       6.9031      0.00000
     54       6.9031      0.00000
     55       6.9031      0.00000
     56       6.9031      0.00000
     57       8.3317      0.00000
     58       8.3317      0.00000
     59       8.3317      0.00000
     60       8.3317      0.00000
     61       8.8380      0.00000
     62       8.8380      0.00000
     63       8.8380      0.00000
     64       8.8380      0.00000
     65       9.5995      0.00000
     66       9.5995      0.00000
     67       9.5995      0.00000
     68       9.5995      0.00000

 k-point 195 :       0.4167    0.5000    0.5000
  band No.  band energies     occupation 
      1      -2.2174      2.00000
      2      -2.2173      2.00000
      3      -2.2173      2.00000
      4      -2.2173      2.00000
      5      -1.8775      2.00000
      6      -1.8775      2.00000
      7      -1.8775      2.00000
      8      -1.8775      2.00000
      9       1.4806      2.00000
     10       1.4807      2.00000
     11       1.4807      2.00000
     12       1.4807      2.00000
     13       1.8113      2.00000
     14       1.8113      2.00000
     15       1.8113      2.00000
     16       1.8113      2.00000
     17       1.8113      2.00000
     18       1.8113      2.00000
     19       1.8114      2.00000
     20       1.8114      2.00000
     21       2.1425      2.00000
     22       2.1425      2.00000
     23       2.1425      2.00000
     24       2.1425      2.00000
     25       2.1425      2.00000
     26       2.1425      2.00000
     27       2.1426      2.00000
     28       2.1426      2.00000
     29       2.4704      2.00000
     30       2.4704      2.00000
     31       2.4704      2.00000
     32       2.4705      2.00000
     33       5.4215      2.00000
     34       5.4215      2.00000
     35       5.4216      2.00000
     36       5.4216      2.00000
     37       5.4216      2.00000
     38       5.4216      2.00000
     39       5.4216      2.00000
     40       5.4216      2.00000
     41       5.7434      2.00000
     42       5.7434      2.00000
     43       5.7434      2.00000
     44       5.7434      2.00000
     45       6.0677      2.00000
     46       6.0678      2.00000
     47       6.0678      2.00000
     48       6.0678      2.00000
     49       6.3866      2.00000
     50       6.3866      2.00000
     51       6.3866      2.00000
     52       6.3866      2.00000
     53       6.3866      2.00000
     54       6.3866      2.00000
     55       6.3866      2.00000
     56       6.3866      2.00000
     57       9.0849      0.00000
     58       9.0849      0.00000
     59       9.0849      0.00000
     60       9.0849      0.00000
     61       9.2740      0.00000
     62       9.2740      0.00000
     63       9.2740      0.00000
     64       9.2740      0.00000
     65       9.7185      0.00000
     66       9.7185      0.00000
     67       9.7185      0.00000
     68       9.7185      0.00000

 k-point 196 :       0.5000    0.5000    0.5000
  band No.  band energies     occupation 
      1      -2.0659      2.00000
      2      -2.0619      2.00000
      3      -2.0619      2.00000
      4      -2.0615      2.00000
      5      -2.0615      2.00000
      6      -2.0611      2.00000
      7      -2.0611      2.00000
      8      -2.0572      2.00000
      9       1.9533      2.00000
     10       1.9596      2.00000
     11       1.9596      2.00000
     12       1.9626      2.00000
     13       1.9627      2.00000
     14       1.9628      2.00000
     15       1.9631      2.00000
     16       1.9631      2.00000
     17       1.9632      2.00000
     18       1.9632      2.00000
     19       1.9632      2.00000
     20       1.9632      2.00000
     21       1.9632      2.00000
     22       1.9632      2.00000
     23       1.9633      2.00000
     24       1.9633      2.00000
     25       1.9633      2.00000
     26       1.9633      2.00000
     27       1.9636      2.00000
     28       1.9637      2.00000
     29       1.9639      2.00000
     30       1.9668      2.00000
     31       1.9668      2.00000
     32       1.9732      2.00000
     33       5.8867      2.00000
     34       5.8867      2.00000
     35       5.8881      2.00000
     36       5.8904      2.00000
     37       5.8915      2.00000
     38       5.8919      2.00000
     39       5.8919      2.00000
     40       5.8919      2.00000
     41       5.8921      2.00000
     42       5.8921      2.00000
     43       5.8921      2.00000
     44       5.8921      2.00000
     45       5.8922      2.00000
     46       5.8922      2.00000
     47       5.8922      2.00000
     48       5.8922      2.00000
     49       5.8924      2.00000
     50       5.8924      2.00000
     51       5.8924      2.00000
     52       5.8928      2.00000
     53       5.8939      2.00000
     54       5.8962      2.00000
     55       5.8976      2.00000
     56       5.8976      2.00000
     57       9.7327      0.00000
     58       9.7327      0.00000
     59       9.7330      0.00000
     60       9.7334      0.00000
     61       9.7346      0.00000
     62       9.7353      0.00000
     63       9.7354      0.00000
     64       9.7355      0.00000
     65       9.8619      0.00000
     66       9.8625      0.00000
     67       9.8633      0.00000
     68       9.8637      0.00000


--------------------------------------------------------------------------------------------------------


 soft charge-density along one line, spin component           1
         0         1         2         3         4         5         6         7         8         9
 total charge-density along one line
 
 pseudopotential strength for first ion, spin component:           1
  8.490  -0.004  -0.000  -0.000  -0.000  -0.000  -0.000  -0.000
 -0.004   0.000  -0.000  -0.000  -0.000   0.000   0.000   0.000
 -0.000  -0.000   1.982  -0.000  -0.000  -0.022   0.000   0.000
 -0.000  -0.000  -0.000   1.982  -0.000   0.000  -0.022   0.000
 -0.000  -0.000  -0.000  -0.000   1.982   0.000   0.000  -0.022
 -0.000   0.000  -0.022   0.000   0.000  -0.013   0.000   0.000
 -0.000   0.000   0.000  -0.022   0.000   0.000  -0.013   0.000
 -0.000   0.000   0.000   0.000  -0.022   0.000   0.000  -0.013
 total augmentation occupancy for first ion, spin component:           1
  1.394  -0.320  -0.000   0.000   0.001   0.000  -0.000  -0.001
 -0.320   0.342   0.000   0.000  -0.003   0.000  -0.000   0.001
 -0.000   0.000   0.621   0.000   0.006  -0.115  -0.001  -0.001
  0.000   0.000   0.000   0.636  -0.005  -0.001  -0.114  -0.000
  0.001  -0.003   0.006  -0.005   0.628  -0.001  -0.000  -0.115
  0.000   0.000  -0.115  -0.001  -0.001   0.025   0.000   0.000
 -0.000  -0.000  -0.001  -0.114  -0.000   0.000   0.024   0.000
 -0.001   0.001  -0.001  -0.000  -0.115   0.000   0.000   0.024


------------------------ aborting loop because EDIFF is reached ----------------------------------------




--------------------------------------------------------------------------------------------------------


    CHARGE:  VPU time  162.72: CPU time  163.30
    FORLOC:  VPU time    0.44: CPU time    0.44
    FORNL :  VPU time  297.28: CPU time  297.99
    STRESS:  VPU time 1304.39: CPU time 1308.00
    FORCOR:  VPU time    3.33: CPU time    3.34
    FORHAR:  VPU time    1.19: CPU time    1.19
    MIXING:  VPU time    0.08: CPU time    0.08


--------------------------------------------------------------------------------------------------------



  FREE ENERGIE OF THE ION-ELECTRON SYSTEM (eV)
  ---------------------------------------------------
  free  energy   TOTEN  =      -117.511172 eV

  energy  without entropy=     -117.510767  energy(sigma->0) =     -117.510970
 

  FORCE on cell =-STRESS in cart. coord.  units (eV/reduce length):
  Direction    X        Y        Z        XY       YZ       ZX
  --------------------------------------------------------------------------------------
  Alpha Z     -5.64     -5.64     -5.64
  Ewald     -747.56   -747.56   -747.56      0.00     -0.00      0.00
  Hartree      1.11      1.11      1.11     -0.00     -0.00     -0.00
  E(xc)     -262.66   -262.66   -262.66     -0.00      0.00      0.00
  Local      -10.41    -10.41    -10.41     -0.00     -0.00      0.00
  n-local    591.65    592.30    591.01     -0.28     -0.08      0.11
  augment    -36.24    -36.24    -36.24      0.00      0.00      0.00
  Kinetic    439.46    431.76    447.16      5.29      0.76     -3.78
  -------------------------------------------------------------------------------------
  Total      -30.29    -30.29    -30.29      0.00      0.00      0.00
  in kB      -79.63    -79.63    -79.63      0.00      0.00      0.00
  external pressure =      -79.63 kB  Pullay stress =        0.00 kB


 VOLUME and BASIS-vectors are now :
 -----------------------------------------------------------------------------
  energy-cutoff  :      750.00
  volume of cell :      609.44
      direct lattice vectors                 reciprocal lattice vectors
     8.478343376  0.000000000  0.000000000     0.117947570  0.000000000  0.000000000
     0.000000000  8.478343376  0.000000000     0.000000000  0.117947570  0.000000000
     0.000000000  0.000000000  8.478343376     0.000000000  0.000000000  0.117947570

  length of vectors
     8.478343376  8.478343376  8.478343376     0.117947570  0.117947570  0.117947570


 FORCES acting on ions
    electron-ion (+dipol)            ewald-force                    non-local-force                 convergence-correction
 -----------------------------------------------------------------------------------------------
   0.330E+00 -.164E-13 -.244E-08   -.276E+00 -.128E-14 0.779E-15   -.784E-01 -.542E-19 0.157E-19   -.129E-06 0.107E-13 -.541E-14
   -.756E-01 -.419E-12 0.118E-08   0.729E-01 -.788E-14 -.165E-14   0.433E-02 -.271E-19 0.000E+00   -.494E-07 0.116E-13 -.418E-14
   0.234E-01 -.836E-13 0.213E-12   -.231E-01 -.588E-14 -.299E-14   -.480E-03 0.271E-19 0.000E+00   -.107E-05 -.111E-13 -.444E-14
   -.177E-01 0.517E-12 0.494E-12   0.181E-01 -.966E-14 -.299E-14   0.295E-04 -.271E-19 0.000E+00   0.116E-05 -.118E-13 -.355E-14
   0.234E-01 0.254E-14 -.474E-11   -.231E-01 -.132E-13 0.109E-14   -.480E-03 0.000E+00 0.000E+00   -.106E-05 0.110E-13 0.567E-14
   -.177E-01 0.344E-12 -.459E-11   0.181E-01 -.966E-14 0.109E-14   0.295E-04 0.000E+00 0.678E-20   0.115E-05 0.118E-13 0.446E-14
   0.923E-02 0.399E-13 -.749E-12   -.952E-02 -.810E-14 0.287E-14   0.527E-03 -.136E-19 0.000E+00   -.531E-06 -.114E-13 0.470E-14
   -.821E-02 -.197E-12 -.938E-12   0.891E-02 -.117E-13 0.287E-14   -.123E-02 -.212E-19 0.000E+00   0.656E-06 -.120E-13 0.386E-14
   0.419E-01 -.185E-03 0.185E-03   -.435E-01 0.161E-03 -.161E-03   0.430E-03 0.310E-04 -.310E-04   -.739E-06 0.108E-07 -.109E-07
   -.254E-01 0.621E-04 -.621E-04   0.245E-01 -.484E-04 0.484E-04   0.327E-03 -.107E-04 0.107E-04   0.780E-06 0.218E-07 -.218E-07
   0.419E-01 0.185E-03 0.185E-03   -.435E-01 -.161E-03 -.161E-03   0.430E-03 -.310E-04 -.310E-04   -.739E-06 -.108E-07 -.109E-07
   -.254E-01 -.621E-04 -.621E-04   0.245E-01 0.484E-04 0.484E-04   0.327E-03 0.107E-04 0.107E-04   0.780E-06 -.218E-07 -.218E-07
   0.419E-01 -.185E-03 -.185E-03   -.435E-01 0.161E-03 0.161E-03   0.430E-03 0.310E-04 0.310E-04   -.739E-06 0.108E-07 0.109E-07
   -.254E-01 0.621E-04 0.621E-04   0.245E-01 -.484E-04 -.484E-04   0.327E-03 -.107E-04 -.107E-04   0.780E-06 0.218E-07 0.218E-07
   0.419E-01 0.185E-03 -.185E-03   -.435E-01 -.161E-03 0.161E-03   0.430E-03 -.310E-04 0.310E-04   -.739E-06 -.108E-07 0.109E-07
   -.254E-01 -.621E-04 0.621E-04   0.245E-01 0.484E-04 -.484E-04   0.327E-03 0.107E-04 -.107E-04   0.780E-06 -.218E-07 0.218E-07
   -.411E-01 -.812E-16 0.727E-01   0.352E-01 -.366E-14 -.668E-01   0.954E-02 0.000E+00 -.954E-02   -.577E-08 0.116E-13 0.528E-06
   -.410E-01 -.460E-13 -.734E-01   0.350E-01 -.722E-15 0.673E-01   0.974E-02 0.000E+00 0.982E-02   0.386E-07 0.133E-13 -.546E-06
   -.664E-03 -.543E-14 0.562E-02   0.117E-02 0.322E-14 -.552E-02   -.563E-03 0.000E+00 0.577E-04   -.645E-07 -.119E-13 -.290E-06
   -.570E-03 0.345E-13 -.562E-02   0.107E-02 -.105E-14 0.553E-02   -.554E-03 -.195E-19 -.636E-04   -.451E-07 -.136E-13 0.232E-06
   -.411E-01 0.153E-15 -.727E-01   0.352E-01 -.566E-14 0.668E-01   0.954E-02 0.000E+00 0.954E-02   -.577E-08 0.977E-14 -.528E-06
   -.410E-01 -.525E-13 0.734E-01   0.350E-01 -.722E-15 -.673E-01   0.974E-02 0.000E+00 -.982E-02   0.386E-07 0.105E-13 0.546E-06
   -.664E-03 -.861E-14 -.562E-02   0.117E-02 0.477E-14 0.552E-02   -.563E-03 -.123E-19 -.577E-04   -.645E-07 -.100E-13 0.290E-06
   -.570E-03 -.196E-12 0.562E-02   0.107E-02 -.105E-14 -.553E-02   -.554E-03 -.136E-19 0.636E-04   -.451E-07 -.108E-13 -.232E-06
   -.411E-01 -.727E-01 0.203E-11   0.352E-01 0.668E-01 -.259E-14   0.954E-02 0.954E-02 0.339E-20   -.477E-08 -.531E-06 -.459E-14
   -.410E-01 0.734E-01 0.131E-11   0.350E-01 -.673E-01 -.348E-14   0.974E-02 -.982E-02 0.000E+00   0.396E-07 0.549E-06 -.656E-14
   -.411E-01 0.727E-01 0.202E-11   0.352E-01 -.668E-01 -.187E-14   0.954E-02 -.954E-02 0.000E+00   -.477E-08 0.531E-06 -.273E-14
   -.410E-01 -.734E-01 0.213E-11   0.350E-01 0.673E-01 -.347E-14   0.974E-02 0.982E-02 -.339E-20   0.396E-07 -.549E-06 -.375E-14
   -.664E-03 -.562E-02 -.395E-12   0.117E-02 0.552E-02 0.261E-14   -.563E-03 -.577E-04 0.678E-20   -.652E-07 0.286E-06 0.489E-14
   -.570E-03 0.562E-02 -.195E-12   0.107E-02 -.553E-02 0.350E-14   -.554E-03 0.636E-04 0.000E+00   -.458E-07 -.228E-06 0.682E-14
   -.664E-03 0.562E-02 -.390E-12   0.117E-02 -.552E-02 0.261E-14   -.563E-03 0.577E-04 0.000E+00   -.652E-07 -.286E-06 0.301E-14
   -.570E-03 -.562E-02 -.447E-12   0.107E-02 0.553E-02 0.350E-14   -.554E-03 -.636E-04 -.339E-20   -.458E-07 0.228E-06 0.401E-14
 -----------------------------------------------------------------------------------------------
   0.153E-05 0.632E-12 -.128E-08   0.420E-14 0.900E-14 -.700E-14   -.152E-05 0.173E-17 -.180E-17   -.368E-08 -.407E-17 -.583E-16
 
 
 POSITION                                       TOTAL-FORCE (eV/Angst)
 -----------------------------------------------------------------------------------
      2.12959      2.11959      0.00000        -0.024330     -0.000000      0.000000
      6.35876      2.11959      0.00000         0.001584      0.000000     -0.000000
      2.11959      6.35876      0.00000        -0.000178     -0.000000      0.000000
      6.35876      6.35876      0.00000         0.000490     -0.000000     -0.000000
      2.11959      2.11959      4.23917        -0.000178      0.000000      0.000000
      6.35876      2.11959      4.23917         0.000490     -0.000000      0.000000
      2.11959      6.35876      4.23917         0.000229     -0.000000      0.000000
      6.35876      6.35876      4.23917        -0.000531      0.000000      0.000000
      2.11959      0.00000      2.11959        -0.001211      0.000008     -0.000008
      6.35876      0.00000      2.11959        -0.000573      0.000003     -0.000003
      2.11959      4.23917      2.11959        -0.001211     -0.000008     -0.000008
      6.35876      4.23917      2.11959        -0.000573     -0.000003     -0.000003
      2.11959      0.00000      6.35876        -0.001211      0.000008      0.000008
      6.35876      0.00000      6.35876        -0.000573      0.000003      0.000003
      2.11959      4.23917      6.35876        -0.001211     -0.000008      0.000008
      6.35876      4.23917      6.35876        -0.000573     -0.000003      0.000003
      0.00000      2.11959      2.11959         0.003701      0.000000     -0.003619
      4.23917      2.11959      2.11959         0.003800     -0.000000      0.003749
      0.00000      6.35876      2.11959        -0.000054     -0.000000      0.000149
      4.23917      6.35876      2.11959        -0.000056     -0.000000     -0.000149
      0.00000      2.11959      6.35876         0.003701      0.000000      0.003619
      4.23917      2.11959      6.35876         0.003800     -0.000000     -0.003749
      0.00000      6.35876      6.35876        -0.000054     -0.000000     -0.000149
      4.23917      6.35876      6.35876        -0.000056      0.000000      0.000149
      0.00000      0.00000      0.00000         0.003701      0.003619      0.000000
      4.23917      0.00000      0.00000         0.003800     -0.003749      0.000000
      0.00000      4.23917      0.00000         0.003701     -0.003619     -0.000000
      4.23917      4.23917      0.00000         0.003800      0.003749      0.000000
      0.00000      0.00000      4.23917        -0.000054     -0.000149     -0.000000
      4.23917      0.00000      4.23917        -0.000056      0.000149      0.000000
      0.00000      4.23917      4.23917        -0.000054      0.000149     -0.000000
      4.23917      4.23917      4.23917        -0.000056     -0.000149      0.000000
 -----------------------------------------------------------------------------------
    total drift:                                0.000000      0.000000     -0.000000


--------------------------------------------------------------------------------------------------------



 mean value of Nose-termostat <S>:     1.000 mean value of <T> :     0.000
 mean temperature <T/S>/<1/S>  :     0.000

     LOOP+:  VPU time39599.39: CPU time39649.47
  
  
 General timing and accounting informations for this job:
 ========================================================
  
                  Total CPU time used (sec):    39856.185
                            User time (sec):    38750.318
                          System time (sec):     1105.867
                         Elapsed time (sec):    39907.150
  
                   Maximum memory used (kb):     4094772.
                   Average memory used (kb):           0.
  
                          Minor page faults:       469664
                          Major page faults:            0
                 Voluntary context switches:          923
