<?xml version="1.0" encoding="ISO-8859-1"?>
<modeling>
 <generator>
  <i name="program" type="string">vasp</i>
  <i name="version" type="string">4.6.28 </i>
  <i name="subversion" type="string">25Jul05 complex  parallel</i>
  <i name="platform" type="string">LinuxIFC</i>
  <i name="date" type="string">2016 11 12</i>
  <i name="time" type="string">03:59:32</i>
 </generator>
 <incar>
  <i type="string" name="PREC">accurate</i>
  <i type="int" name="IALGO">    38</i>
  <i type="logical" name="ADDGRID"> T  </i>
  <i name="EDIFF">      0.00000001</i>
  <i type="int" name="IBRION">    -1</i>
  <i name="ENCUT">    750.00000000</i>
  <i type="logical" name="LREAL"> F  </i>
  <i type="int" name="ISMEAR">     0</i>
  <i name="SIGMA">      0.01000000</i>
  <i type="logical" name="LWAVE"> F  </i>
  <i type="logical" name="LCHARG"> F  </i>
 </incar>
 <kpoints>
  <generation param="Gamma">
   <v type="int" name="divisions">      12      12      12</v>
   <v name="usershift">      0.00000000      0.00000000      0.00000000</v>
   <v name="genvec1">      0.08333333      0.00000000      0.00000000</v>
   <v name="genvec2">      0.00000000      0.08333333      0.00000000</v>
   <v name="genvec3">      0.00000000      0.00000000      0.08333333</v>
   <v name="shift">      0.00000000      0.00000000      0.00000000</v>
  </generation>
  <varray name="kpointlist" >
   <v>       0.00000000      0.00000000      0.00000000</v>
   <v>       0.08333333      0.00000000      0.00000000</v>
   <v>       0.16666667      0.00000000      0.00000000</v>
   <v>       0.25000000      0.00000000      0.00000000</v>
   <v>       0.33333333      0.00000000      0.00000000</v>
   <v>       0.41666667      0.00000000      0.00000000</v>
   <v>       0.50000000      0.00000000      0.00000000</v>
   <v>       0.00000000      0.08333333      0.00000000</v>
   <v>       0.08333333      0.08333333      0.00000000</v>
   <v>       0.16666667      0.08333333      0.00000000</v>
   <v>       0.25000000      0.08333333      0.00000000</v>
   <v>       0.33333333      0.08333333      0.00000000</v>
   <v>       0.41666667      0.08333333      0.00000000</v>
   <v>       0.50000000      0.08333333      0.00000000</v>
   <v>       0.00000000      0.16666667      0.00000000</v>
   <v>       0.08333333      0.16666667      0.00000000</v>
   <v>       0.16666667      0.16666667      0.00000000</v>
   <v>       0.25000000      0.16666667      0.00000000</v>
   <v>       0.33333333      0.16666667      0.00000000</v>
   <v>       0.41666667      0.16666667      0.00000000</v>
   <v>       0.50000000      0.16666667      0.00000000</v>
   <v>       0.00000000      0.25000000      0.00000000</v>
   <v>       0.08333333      0.25000000      0.00000000</v>
   <v>       0.16666667      0.25000000      0.00000000</v>
   <v>       0.25000000      0.25000000      0.00000000</v>
   <v>       0.33333333      0.25000000      0.00000000</v>
   <v>       0.41666667      0.25000000      0.00000000</v>
   <v>       0.50000000      0.25000000      0.00000000</v>
   <v>       0.00000000      0.33333333      0.00000000</v>
   <v>       0.08333333      0.33333333      0.00000000</v>
   <v>       0.16666667      0.33333333      0.00000000</v>
   <v>       0.25000000      0.33333333      0.00000000</v>
   <v>       0.33333333      0.33333333      0.00000000</v>
   <v>       0.41666667      0.33333333      0.00000000</v>
   <v>       0.50000000      0.33333333      0.00000000</v>
   <v>       0.00000000      0.41666667      0.00000000</v>
   <v>       0.08333333      0.41666667      0.00000000</v>
   <v>       0.16666667      0.41666667      0.00000000</v>
   <v>       0.25000000      0.41666667      0.00000000</v>
   <v>       0.33333333      0.41666667      0.00000000</v>
   <v>       0.41666667      0.41666667      0.00000000</v>
   <v>       0.50000000      0.41666667      0.00000000</v>
   <v>       0.00000000      0.50000000      0.00000000</v>
   <v>       0.08333333      0.50000000      0.00000000</v>
   <v>       0.16666667      0.50000000      0.00000000</v>
   <v>       0.25000000      0.50000000      0.00000000</v>
   <v>       0.33333333      0.50000000      0.00000000</v>
   <v>       0.41666667      0.50000000      0.00000000</v>
   <v>       0.50000000      0.50000000      0.00000000</v>
   <v>       0.00000000      0.08333333      0.08333333</v>
   <v>       0.08333333      0.08333333      0.08333333</v>
   <v>       0.16666667      0.08333333      0.08333333</v>
   <v>       0.25000000      0.08333333      0.08333333</v>
   <v>       0.33333333      0.08333333      0.08333333</v>
   <v>       0.41666667      0.08333333      0.08333333</v>
   <v>       0.50000000      0.08333333      0.08333333</v>
   <v>       0.00000000      0.16666667      0.08333333</v>
   <v>       0.08333333      0.16666667      0.08333333</v>
   <v>       0.16666667      0.16666667      0.08333333</v>
   <v>       0.25000000      0.16666667      0.08333333</v>
   <v>       0.33333333      0.16666667      0.08333333</v>
   <v>       0.41666667      0.16666667      0.08333333</v>
   <v>       0.50000000      0.16666667      0.08333333</v>
   <v>       0.00000000      0.25000000      0.08333333</v>
   <v>       0.08333333      0.25000000      0.08333333</v>
   <v>       0.16666667      0.25000000      0.08333333</v>
   <v>       0.25000000      0.25000000      0.08333333</v>
   <v>       0.33333333      0.25000000      0.08333333</v>
   <v>       0.41666667      0.25000000      0.08333333</v>
   <v>       0.50000000      0.25000000      0.08333333</v>
   <v>       0.00000000      0.33333333      0.08333333</v>
   <v>       0.08333333      0.33333333      0.08333333</v>
   <v>       0.16666667      0.33333333      0.08333333</v>
   <v>       0.25000000      0.33333333      0.08333333</v>
   <v>       0.33333333      0.33333333      0.08333333</v>
   <v>       0.41666667      0.33333333      0.08333333</v>
   <v>       0.50000000      0.33333333      0.08333333</v>
   <v>       0.00000000      0.41666667      0.08333333</v>
   <v>       0.08333333      0.41666667      0.08333333</v>
   <v>       0.16666667      0.41666667      0.08333333</v>
   <v>       0.25000000      0.41666667      0.08333333</v>
   <v>       0.33333333      0.41666667      0.08333333</v>
   <v>       0.41666667      0.41666667      0.08333333</v>
   <v>       0.50000000      0.41666667      0.08333333</v>
   <v>       0.00000000      0.50000000      0.08333333</v>
   <v>       0.08333333      0.50000000      0.08333333</v>
   <v>       0.16666667      0.50000000      0.08333333</v>
   <v>       0.25000000      0.50000000      0.08333333</v>
   <v>       0.33333333      0.50000000      0.08333333</v>
   <v>       0.41666667      0.50000000      0.08333333</v>
   <v>       0.50000000      0.50000000      0.08333333</v>
   <v>       0.00000000      0.16666667      0.16666667</v>
   <v>       0.08333333      0.16666667      0.16666667</v>
   <v>       0.16666667      0.16666667      0.16666667</v>
   <v>       0.25000000      0.16666667      0.16666667</v>
   <v>       0.33333333      0.16666667      0.16666667</v>
   <v>       0.41666667      0.16666667      0.16666667</v>
   <v>       0.50000000      0.16666667      0.16666667</v>
   <v>       0.00000000      0.25000000      0.16666667</v>
   <v>       0.08333333      0.25000000      0.16666667</v>
   <v>       0.16666667      0.25000000      0.16666667</v>
   <v>       0.25000000      0.25000000      0.16666667</v>
   <v>       0.33333333      0.25000000      0.16666667</v>
   <v>       0.41666667      0.25000000      0.16666667</v>
   <v>       0.50000000      0.25000000      0.16666667</v>
   <v>       0.00000000      0.33333333      0.16666667</v>
   <v>       0.08333333      0.33333333      0.16666667</v>
   <v>       0.16666667      0.33333333      0.16666667</v>
   <v>       0.25000000      0.33333333      0.16666667</v>
   <v>       0.33333333      0.33333333      0.16666667</v>
   <v>       0.41666667      0.33333333      0.16666667</v>
   <v>       0.50000000      0.33333333      0.16666667</v>
   <v>       0.00000000      0.41666667      0.16666667</v>
   <v>       0.08333333      0.41666667      0.16666667</v>
   <v>       0.16666667      0.41666667      0.16666667</v>
   <v>       0.25000000      0.41666667      0.16666667</v>
   <v>       0.33333333      0.41666667      0.16666667</v>
   <v>       0.41666667      0.41666667      0.16666667</v>
   <v>       0.50000000      0.41666667      0.16666667</v>
   <v>       0.00000000      0.50000000      0.16666667</v>
   <v>       0.08333333      0.50000000      0.16666667</v>
   <v>       0.16666667      0.50000000      0.16666667</v>
   <v>       0.25000000      0.50000000      0.16666667</v>
   <v>       0.33333333      0.50000000      0.16666667</v>
   <v>       0.41666667      0.50000000      0.16666667</v>
   <v>       0.50000000      0.50000000      0.16666667</v>
   <v>       0.00000000      0.25000000      0.25000000</v>
   <v>       0.08333333      0.25000000      0.25000000</v>
   <v>       0.16666667      0.25000000      0.25000000</v>
   <v>       0.25000000      0.25000000      0.25000000</v>
   <v>       0.33333333      0.25000000      0.25000000</v>
   <v>       0.41666667      0.25000000      0.25000000</v>
   <v>       0.50000000      0.25000000      0.25000000</v>
   <v>       0.00000000      0.33333333      0.25000000</v>
   <v>       0.08333333      0.33333333      0.25000000</v>
   <v>       0.16666667      0.33333333      0.25000000</v>
   <v>       0.25000000      0.33333333      0.25000000</v>
   <v>       0.33333333      0.33333333      0.25000000</v>
   <v>       0.41666667      0.33333333      0.25000000</v>
   <v>       0.50000000      0.33333333      0.25000000</v>
   <v>       0.00000000      0.41666667      0.25000000</v>
   <v>       0.08333333      0.41666667      0.25000000</v>
   <v>       0.16666667      0.41666667      0.25000000</v>
   <v>       0.25000000      0.41666667      0.25000000</v>
   <v>       0.33333333      0.41666667      0.25000000</v>
   <v>       0.41666667      0.41666667      0.25000000</v>
   <v>       0.50000000      0.41666667      0.25000000</v>
   <v>       0.00000000      0.50000000      0.25000000</v>
   <v>       0.08333333      0.50000000      0.25000000</v>
   <v>       0.16666667      0.50000000      0.25000000</v>
   <v>       0.25000000      0.50000000      0.25000000</v>
   <v>       0.33333333      0.50000000      0.25000000</v>
   <v>       0.41666667      0.50000000      0.25000000</v>
   <v>       0.50000000      0.50000000      0.25000000</v>
   <v>       0.00000000      0.33333333      0.33333333</v>
   <v>       0.08333333      0.33333333      0.33333333</v>
   <v>       0.16666667      0.33333333      0.33333333</v>
   <v>       0.25000000      0.33333333      0.33333333</v>
   <v>       0.33333333      0.33333333      0.33333333</v>
   <v>       0.41666667      0.33333333      0.33333333</v>
   <v>       0.50000000      0.33333333      0.33333333</v>
   <v>       0.00000000      0.41666667      0.33333333</v>
   <v>       0.08333333      0.41666667      0.33333333</v>
   <v>       0.16666667      0.41666667      0.33333333</v>
   <v>       0.25000000      0.41666667      0.33333333</v>
   <v>       0.33333333      0.41666667      0.33333333</v>
   <v>       0.41666667      0.41666667      0.33333333</v>
   <v>       0.50000000      0.41666667      0.33333333</v>
   <v>       0.00000000      0.50000000      0.33333333</v>
   <v>       0.08333333      0.50000000      0.33333333</v>
   <v>       0.16666667      0.50000000      0.33333333</v>
   <v>       0.25000000      0.50000000      0.33333333</v>
   <v>       0.33333333      0.50000000      0.33333333</v>
   <v>       0.41666667      0.50000000      0.33333333</v>
   <v>       0.50000000      0.50000000      0.33333333</v>
   <v>       0.00000000      0.41666667      0.41666667</v>
   <v>       0.08333333      0.41666667      0.41666667</v>
   <v>       0.16666667      0.41666667      0.41666667</v>
   <v>       0.25000000      0.41666667      0.41666667</v>
   <v>       0.33333333      0.41666667      0.41666667</v>
   <v>       0.41666667      0.41666667      0.41666667</v>
   <v>       0.50000000      0.41666667      0.41666667</v>
   <v>       0.00000000      0.50000000      0.41666667</v>
   <v>       0.08333333      0.50000000      0.41666667</v>
   <v>       0.16666667      0.50000000      0.41666667</v>
   <v>       0.25000000      0.50000000      0.41666667</v>
   <v>       0.33333333      0.50000000      0.41666667</v>
   <v>       0.41666667      0.50000000      0.41666667</v>
   <v>       0.50000000      0.50000000      0.41666667</v>
   <v>       0.00000000      0.50000000      0.50000000</v>
   <v>       0.08333333      0.50000000      0.50000000</v>
   <v>       0.16666667      0.50000000      0.50000000</v>
   <v>       0.25000000      0.50000000      0.50000000</v>
   <v>       0.33333333      0.50000000      0.50000000</v>
   <v>       0.41666667      0.50000000      0.50000000</v>
   <v>       0.50000000      0.50000000      0.50000000</v>
  </varray>
  <varray name="weights" >
   <v>       0.00057870</v>
   <v>       0.00115741</v>
   <v>       0.00115741</v>
   <v>       0.00115741</v>
   <v>       0.00115741</v>
   <v>       0.00115741</v>
   <v>       0.00057870</v>
   <v>       0.00231481</v>
   <v>       0.00462963</v>
   <v>       0.00462963</v>
   <v>       0.00462963</v>
   <v>       0.00462963</v>
   <v>       0.00462963</v>
   <v>       0.00231481</v>
   <v>       0.00231481</v>
   <v>       0.00462963</v>
   <v>       0.00462963</v>
   <v>       0.00462963</v>
   <v>       0.00462963</v>
   <v>       0.00462963</v>
   <v>       0.00231481</v>
   <v>       0.00231481</v>
   <v>       0.00462963</v>
   <v>       0.00462963</v>
   <v>       0.00462963</v>
   <v>       0.00462963</v>
   <v>       0.00462963</v>
   <v>       0.00231481</v>
   <v>       0.00231481</v>
   <v>       0.00462963</v>
   <v>       0.00462963</v>
   <v>       0.00462963</v>
   <v>       0.00462963</v>
   <v>       0.00462963</v>
   <v>       0.00231481</v>
   <v>       0.00231481</v>
   <v>       0.00462963</v>
   <v>       0.00462963</v>
   <v>       0.00462963</v>
   <v>       0.00462963</v>
   <v>       0.00462963</v>
   <v>       0.00231481</v>
   <v>       0.00115741</v>
   <v>       0.00231481</v>
   <v>       0.00231481</v>
   <v>       0.00231481</v>
   <v>       0.00231481</v>
   <v>       0.00231481</v>
   <v>       0.00115741</v>
   <v>       0.00231481</v>
   <v>       0.00462963</v>
   <v>       0.00462963</v>
   <v>       0.00462963</v>
   <v>       0.00462963</v>
   <v>       0.00462963</v>
   <v>       0.00231481</v>
   <v>       0.00462963</v>
   <v>       0.00925926</v>
   <v>       0.00925926</v>
   <v>       0.00925926</v>
   <v>       0.00925926</v>
   <v>       0.00925926</v>
   <v>       0.00462963</v>
   <v>       0.00462963</v>
   <v>       0.00925926</v>
   <v>       0.00925926</v>
   <v>       0.00925926</v>
   <v>       0.00925926</v>
   <v>       0.00925926</v>
   <v>       0.00462963</v>
   <v>       0.00462963</v>
   <v>       0.00925926</v>
   <v>       0.00925926</v>
   <v>       0.00925926</v>
   <v>       0.00925926</v>
   <v>       0.00925926</v>
   <v>       0.00462963</v>
   <v>       0.00462963</v>
   <v>       0.00925926</v>
   <v>       0.00925926</v>
   <v>       0.00925926</v>
   <v>       0.00925926</v>
   <v>       0.00925926</v>
   <v>       0.00462963</v>
   <v>       0.00231481</v>
   <v>       0.00462963</v>
   <v>       0.00462963</v>
   <v>       0.00462963</v>
   <v>       0.00462963</v>
   <v>       0.00462963</v>
   <v>       0.00231481</v>
   <v>       0.00231481</v>
   <v>       0.00462963</v>
   <v>       0.00462963</v>
   <v>       0.00462963</v>
   <v>       0.00462963</v>
   <v>       0.00462963</v>
   <v>       0.00231481</v>
   <v>       0.00462963</v>
   <v>       0.00925926</v>
   <v>       0.00925926</v>
   <v>       0.00925926</v>
   <v>       0.00925926</v>
   <v>       0.00925926</v>
   <v>       0.00462963</v>
   <v>       0.00462963</v>
   <v>       0.00925926</v>
   <v>       0.00925926</v>
   <v>       0.00925926</v>
   <v>       0.00925926</v>
   <v>       0.00925926</v>
   <v>       0.00462963</v>
   <v>       0.00462963</v>
   <v>       0.00925926</v>
   <v>       0.00925926</v>
   <v>       0.00925926</v>
   <v>       0.00925926</v>
   <v>       0.00925926</v>
   <v>       0.00462963</v>
   <v>       0.00231481</v>
   <v>       0.00462963</v>
   <v>       0.00462963</v>
   <v>       0.00462963</v>
   <v>       0.00462963</v>
   <v>       0.00462963</v>
   <v>       0.00231481</v>
   <v>       0.00231481</v>
   <v>       0.00462963</v>
   <v>       0.00462963</v>
   <v>       0.00462963</v>
   <v>       0.00462963</v>
   <v>       0.00462963</v>
   <v>       0.00231481</v>
   <v>       0.00462963</v>
   <v>       0.00925926</v>
   <v>       0.00925926</v>
   <v>       0.00925926</v>
   <v>       0.00925926</v>
   <v>       0.00925926</v>
   <v>       0.00462963</v>
   <v>       0.00462963</v>
   <v>       0.00925926</v>
   <v>       0.00925926</v>
   <v>       0.00925926</v>
   <v>       0.00925926</v>
   <v>       0.00925926</v>
   <v>       0.00462963</v>
   <v>       0.00231481</v>
   <v>       0.00462963</v>
   <v>       0.00462963</v>
   <v>       0.00462963</v>
   <v>       0.00462963</v>
   <v>       0.00462963</v>
   <v>       0.00231481</v>
   <v>       0.00231481</v>
   <v>       0.00462963</v>
   <v>       0.00462963</v>
   <v>       0.00462963</v>
   <v>       0.00462963</v>
   <v>       0.00462963</v>
   <v>       0.00231481</v>
   <v>       0.00462963</v>
   <v>       0.00925926</v>
   <v>       0.00925926</v>
   <v>       0.00925926</v>
   <v>       0.00925926</v>
   <v>       0.00925926</v>
   <v>       0.00462963</v>
   <v>       0.00231481</v>
   <v>       0.00462963</v>
   <v>       0.00462963</v>
   <v>       0.00462963</v>
   <v>       0.00462963</v>
   <v>       0.00462963</v>
   <v>       0.00231481</v>
   <v>       0.00231481</v>
   <v>       0.00462963</v>
   <v>       0.00462963</v>
   <v>       0.00462963</v>
   <v>       0.00462963</v>
   <v>       0.00462963</v>
   <v>       0.00231481</v>
   <v>       0.00231481</v>
   <v>       0.00462963</v>
   <v>       0.00462963</v>
   <v>       0.00462963</v>
   <v>       0.00462963</v>
   <v>       0.00462963</v>
   <v>       0.00231481</v>
   <v>       0.00057870</v>
   <v>       0.00115741</v>
   <v>       0.00115741</v>
   <v>       0.00115741</v>
   <v>       0.00115741</v>
   <v>       0.00115741</v>
   <v>       0.00057870</v>
  </varray>
 </kpoints>
 <parameters>
  <separator name="general" >
   <i type="string" name="SYSTEM">unknown system</i>
   <i type="logical" name="LCOMPAT"> F  </i>
  </separator>
  <separator name="electronic" >
   <i type="string" name="PREC">accura</i>
   <i name="ENMAX">    750.00000000</i>
   <i name="ENAUG">    291.05200000</i>
   <i name="EDIFF">      0.00000001</i>
   <i type="int" name="IALGO">    38</i>
   <i type="int" name="IWAVPR">    10</i>
   <i type="int" name="NBANDS">    65</i>
   <i name="NELECT">     96.00000000</i>
   <separator name="electronic smearing" >
    <i type="int" name="ISMEAR">     0</i>
    <i name="SIGMA">      0.01000000</i>
   </separator>
   <separator name="electronic projectors" >
    <i type="logical" name="LREAL"> F  </i>
    <v name="ROPT">      0.00000000</v>
    <i type="int" name="LMAXPAW">  -100</i>
    <i type="int" name="LMAXMIX">     2</i>
   </separator>
   <separator name="electronic startup" >
    <i type="int" name="ISTART">     0</i>
    <i type="int" name="ICHARG">     2</i>
    <i type="int" name="INIWAV">     1</i>
   </separator>
   <separator name="electronic spin" >
    <i type="int" name="ISPIN">     1</i>
    <i type="logical" name="LNONCOLLINEAR"> F  </i>
    <v name="MAGMOM">      1.00000000      1.00000000      1.00000000      1.00000000      1.00000000      1.00000000      1.00000000      1.00000000      1.00000000      1.00000000      1.00000000      1.00000000      1.00000000      1.00000000      1.00000000      1.00000000      1.00000000      1.00000000      1.00000000      1.00000000
      1.00000000      1.00000000      1.00000000      1.00000000      1.00000000      1.00000000      1.00000000      1.00000000      1.00000000      1.00000000      1.00000000      1.00000000</v>
    <i name="NUPDOWN">     -1.00000000</i>
    <i type="logical" name="LSORBIT"> F  </i>
    <v name="SAXIS">      0.00000000      0.00000000      1.00000000</v>
    <i type="logical" name="LSPIRAL"> F  </i>
    <v name="QSPIRAL">      0.00000000      0.00000000      0.00000000</v>
    <i type="logical" name="LZEROZ"> F  </i>
   </separator>
   <separator name="electronic exchange-correlation" >
    <i type="string" name="GGA">--</i>
    <i type="int" name="VOSKOWN">     0</i>
    <i type="logical" name="LASPH"> F  </i>
    <i type="logical" name="LMETAGGA"> F  </i>
    <i type="string" name="GGA2">--</i>
   </separator>
   <separator name="electronic convergence" >
    <i type="int" name="NELM">    60</i>
    <i type="int" name="NELMDL">     0</i>
    <i type="int" name="NELMIN">     2</i>
    <i name="ENINI">    750.00000000</i>
    <separator name="electronic convergence detail" >
     <i type="logical" name="LDIAG"> T  </i>
     <i name="WEIMIN">      0.00000000</i>
     <i name="EBREAK">      0.00000000</i>
     <i name="DEPER">      0.30000000</i>
     <i type="int" name="NRMM">     4</i>
     <i name="TIME">      0.10000000</i>
    </separator>
   </separator>
   <separator name="electronic mixer" >
    <i name="AMIX">      0.40000000</i>
    <i name="BMIX">      1.00000000</i>
    <i name="AMIN">      0.10000000</i>
    <i name="AMIX_MAG">      1.60000000</i>
    <i name="BMIX_MAG">      1.00000000</i>
    <separator name="electronic mixer details" >
     <i type="int" name="IMIX">     4</i>
     <i type="int" name="MAXMIX">   -45</i>
     <i name="WC">    100.00000000</i>
     <i type="int" name="INIMIX">     1</i>
     <i type="int" name="MIXPRE">     1</i>
     <i type="int" name="MREMOVE">     5</i>
    </separator>
   </separator>
   <separator name="electronic dipolcorrection" >
    <i type="int" name="IDIPOL">     0</i>
    <i type="logical" name="LDIPOL"> F  </i>
    <v name="DIPOL">   -100.00000000</v>
    <i name="EFIELD">      0.00000000</i>
   </separator>
  </separator>
  <separator name="grids" >
   <i type="int" name="NGX">    80</i>
   <i type="int" name="NGY">    80</i>
   <i type="int" name="NGZ">    80</i>
   <i type="int" name="NGXF">   160</i>
   <i type="int" name="NGYF">   160</i>
   <i type="int" name="NGZF">   160</i>
   <i type="logical" name="ADDGRID"> T  </i>
  </separator>
  <separator name="ionic" >
   <i type="int" name="NSW">     0</i>
   <i type="int" name="IBRION">    -1</i>
   <i type="int" name="ISIF">     2</i>
   <i name="PSTRESS">      0.00000000</i>
   <i name="EDIFFG">      0.00000010</i>
   <i type="int" name="NFREE">     0</i>
   <i name="POTIM">      0.50000000</i>
   <i name="SMASS">     -3.00000000</i>
  </separator>
  <separator name="ionic md" >
   <i name="TEBEG">      0.00010000</i>
   <i name="TEEND">      0.00010000</i>
   <i type="int" name="NBLOCK">     1</i>
   <i type="int" name="KBLOCK">     1</i>
   <i type="int" name="NPACO">   256</i>
   <i name="APACO">     16.00000000</i>
  </separator>
  <separator name="symmetry" >
   <i type="int" name="ISYM">     2</i>
   <i name="SYMPREC">      0.00001000</i>
  </separator>
  <separator name="dos" >
   <i type="logical" name="LORBIT"> F  </i>
   <v name="RWIGS">     -1.00000000</v>
   <i type="int" name="NEDOS">   301</i>
   <i name="EMIN">     10.00000000</i>
   <i name="EMAX">    -10.00000000</i>
  </separator>
  <separator name="writing" >
   <i type="int" name="NWRITE">     2</i>
   <i type="logical" name="LWAVE"> F  </i>
   <i type="logical" name="LCHARG"> F  </i>
   <i type="logical" name="LPARD"> F  </i>
   <i type="logical" name="LVTOT"> F  </i>
   <i type="logical" name="LELF"> F  </i>
   <i type="logical" name="LOPTICS"> F  </i>
   <i name="STM">      0.00000000</i>
  </separator>
  <separator name="performance" >
   <i type="int" name="NPAR">     4</i>
   <i type="int" name="NSIM">     4</i>
   <i type="int" name="NBLK">   256</i>
   <i type="logical" name="LPLANE"> T  </i>
   <i type="logical" name="LCRITICAL_MEM"> F  </i>
   <i type="logical" name="LSCALAPACK"> F  </i>
   <i type="logical" name="LSCALU"> F  </i>
   <i type="logical" name="LASYNC"> F  </i>
  </separator>
  <separator name="miscellaneous" >
   <i type="int" name="IDIOT">     3</i>
   <i type="logical" name="LMUSIC"> F  </i>
   <v name="POMASS">     26.98200000</v>
   <i type="logical" name="LCORR"> T  </i>
  </separator>
  <i type="logical" name="LREAL_COMPAT"> F  </i>
  <i type="logical" name="GGA_COMPAT"> T  </i>
  <i type="logical" name="LBERRY"> F  </i>
  <i type="int" name="ICORELEVEL">     0</i>
  <i type="logical" name="LDAU"> F  </i>
  <i type="int" name="I_CONSTRAINED_M">     0</i>
 </parameters>
 <atominfo>
  <atoms>      32</atoms>
  <types>       1</types>
  <array name="atoms" >
   <dimension dim="1">ion</dimension>
   <field type="string">element</field>
   <field type="int">atomtype</field>
   <set>
    <rc><c>Al</c><c>   1</c></rc>
    <rc><c>Al</c><c>   1</c></rc>
    <rc><c>Al</c><c>   1</c></rc>
    <rc><c>Al</c><c>   1</c></rc>
    <rc><c>Al</c><c>   1</c></rc>
    <rc><c>Al</c><c>   1</c></rc>
    <rc><c>Al</c><c>   1</c></rc>
    <rc><c>Al</c><c>   1</c></rc>
    <rc><c>Al</c><c>   1</c></rc>
    <rc><c>Al</c><c>   1</c></rc>
    <rc><c>Al</c><c>   1</c></rc>
    <rc><c>Al</c><c>   1</c></rc>
    <rc><c>Al</c><c>   1</c></rc>
    <rc><c>Al</c><c>   1</c></rc>
    <rc><c>Al</c><c>   1</c></rc>
    <rc><c>Al</c><c>   1</c></rc>
    <rc><c>Al</c><c>   1</c></rc>
    <rc><c>Al</c><c>   1</c></rc>
    <rc><c>Al</c><c>   1</c></rc>
    <rc><c>Al</c><c>   1</c></rc>
    <rc><c>Al</c><c>   1</c></rc>
    <rc><c>Al</c><c>   1</c></rc>
    <rc><c>Al</c><c>   1</c></rc>
    <rc><c>Al</c><c>   1</c></rc>
    <rc><c>Al</c><c>   1</c></rc>
    <rc><c>Al</c><c>   1</c></rc>
    <rc><c>Al</c><c>   1</c></rc>
    <rc><c>Al</c><c>   1</c></rc>
    <rc><c>Al</c><c>   1</c></rc>
    <rc><c>Al</c><c>   1</c></rc>
    <rc><c>Al</c><c>   1</c></rc>
    <rc><c>Al</c><c>   1</c></rc>
   </set>
  </array>
  <array name="atomtypes" >
   <dimension dim="1">type</dimension>
   <field type="int">atomspertype</field>
   <field type="string">element</field>
   <field>mass</field>
   <field>valence</field>
   <field type="string">pseudopotential</field>
   <set>
    <rc><c>  32</c><c>Al</c><c>     26.98200000</c><c>      3.00000000</c><c> PAW_PBE Al 04Jan2001                   </c></rc>
   </set>
  </array>
 </atominfo>
 <structure name="initialpos" >
  <crystal>
   <varray name="basis" >
    <v>       8.47834338      0.00000000      0.00000000</v>
    <v>       0.00000000      8.47834338      0.00000000</v>
    <v>       0.00000000      0.00000000      8.47834338</v>
   </varray>
   <i name="volume">    609.44287640</i>
   <varray name="rec_basis" >
    <v>       0.11794757      0.00000000      0.00000000</v>
    <v>       0.00000000      0.11794757      0.00000000</v>
    <v>       0.00000000      0.00000000      0.11794757</v>
   </varray>
  </crystal>
  <varray name="positions" >
   <v>       0.25117948      0.25000000      0.00000000</v>
   <v>       0.75000000      0.25000000      0.00000000</v>
   <v>       0.25000000      0.75000000      0.00000000</v>
   <v>       0.75000000      0.75000000      0.00000000</v>
   <v>       0.25000000      0.25000000      0.50000000</v>
   <v>       0.75000000      0.25000000      0.50000000</v>
   <v>       0.25000000      0.75000000      0.50000000</v>
   <v>       0.75000000      0.75000000      0.50000000</v>
   <v>       0.25000000      0.00000000      0.25000000</v>
   <v>       0.75000000      0.00000000      0.25000000</v>
   <v>       0.25000000      0.50000000      0.25000000</v>
   <v>       0.75000000      0.50000000      0.25000000</v>
   <v>       0.25000000      0.00000000      0.75000000</v>
   <v>       0.75000000      0.00000000      0.75000000</v>
   <v>       0.25000000      0.50000000      0.75000000</v>
   <v>       0.75000000      0.50000000      0.75000000</v>
   <v>       0.00000000      0.25000000      0.25000000</v>
   <v>       0.50000000      0.25000000      0.25000000</v>
   <v>       0.00000000      0.75000000      0.25000000</v>
   <v>       0.50000000      0.75000000      0.25000000</v>
   <v>       0.00000000      0.25000000      0.75000000</v>
   <v>       0.50000000      0.25000000      0.75000000</v>
   <v>       0.00000000      0.75000000      0.75000000</v>
   <v>       0.50000000      0.75000000      0.75000000</v>
   <v>       0.00000000      0.00000000      0.00000000</v>
   <v>       0.50000000      0.00000000      0.00000000</v>
   <v>       0.00000000      0.50000000      0.00000000</v>
   <v>       0.50000000      0.50000000      0.00000000</v>
   <v>       0.00000000      0.00000000      0.50000000</v>
   <v>       0.50000000      0.00000000      0.50000000</v>
   <v>       0.00000000      0.50000000      0.50000000</v>
   <v>       0.50000000      0.50000000      0.50000000</v>
  </varray>
 </structure>
 <calculation>
  <scstep>
   <time name="dav"> 2250.79 2256.24</time>
   <time name="total"> 2256.02 2261.48</time>
   <energy>
    <i name="alphaZ">     -5.64355352</i>
    <i name="ewald">  -2242.66093683</i>
    <i name="hartreedc">     -5.70768390</i>
    <i name="XCdc">   -847.69235824</i>
    <i name="pawpsdc">   1137.73615723</i>
    <i name="pawaedc">   -115.16745734</i>
    <i name="eentropy">     -0.00051850</i>
    <i name="bandstr">    529.33940987</i>
    <i name="atom">   1713.23509266</i>
    <i name="e_fr_energy">    163.43815143</i>
    <i name="e_wo_entrp">    163.43866993</i>
    <i name="e_0_energy">    163.43841068</i>
   </energy>
  </scstep>
  <scstep>
   <time name="dav"> 2481.41 2484.30</time>
   <time name="total"> 2481.47 2484.38</time>
   <energy>
    <i name="e_fr_energy">   -100.55642296</i>
    <i name="e_wo_entrp">   -100.55600751</i>
    <i name="e_0_energy">   -100.55621524</i>
   </energy>
  </scstep>
  <scstep>
   <time name="dav"> 2625.16 2629.52</time>
   <time name="total"> 2625.21 2629.58</time>
   <energy>
    <i name="e_fr_energy">   -117.72770861</i>
    <i name="e_wo_entrp">   -117.72730347</i>
    <i name="e_0_energy">   -117.72750604</i>
   </energy>
  </scstep>
  <scstep>
   <time name="dav"> 2516.41 2520.63</time>
   <time name="total"> 2516.46 2520.68</time>
   <energy>
    <i name="e_fr_energy">   -118.17100306</i>
    <i name="e_wo_entrp">   -118.17062330</i>
    <i name="e_0_energy">   -118.17081318</i>
   </energy>
  </scstep>
  <scstep>
   <time name="dav"> 2671.55 2675.94</time>
   <time name="total"> 2846.63 2851.34</time>
   <energy>
    <i name="e_fr_energy">   -118.17683859</i>
    <i name="e_wo_entrp">   -118.17645625</i>
    <i name="e_0_energy">   -118.17664742</i>
   </energy>
  </scstep>
  <scstep>
   <time name="dav"> 2620.57 2622.10</time>
   <time name="total"> 2792.17 2793.81</time>
   <energy>
    <i name="e_fr_energy">   -117.78973710</i>
    <i name="e_wo_entrp">   -117.78934800</i>
    <i name="e_0_energy">   -117.78954255</i>
   </energy>
  </scstep>
  <scstep>
   <time name="dav"> 2542.06 2543.54</time>
   <time name="total"> 2713.75 2715.34</time>
   <energy>
    <i name="e_fr_energy">   -117.51131184</i>
    <i name="e_wo_entrp">   -117.51090732</i>
    <i name="e_0_energy">   -117.51110958</i>
   </energy>
  </scstep>
  <scstep>
   <time name="dav"> 2693.20 2696.37</time>
   <time name="total"> 2865.43 2868.83</time>
   <energy>
    <i name="e_fr_energy">   -117.51116377</i>
    <i name="e_wo_entrp">   -117.51075906</i>
    <i name="e_0_energy">   -117.51096142</i>
   </energy>
  </scstep>
  <scstep>
   <time name="dav"> 2500.02 2502.33</time>
   <time name="total"> 2663.94 2666.37</time>
   <energy>
    <i name="e_fr_energy">   -117.51117918</i>
    <i name="e_wo_entrp">   -117.51077426</i>
    <i name="e_0_energy">   -117.51097672</i>
   </energy>
  </scstep>
  <scstep>
   <time name="dav"> 2525.30 2526.68</time>
   <time name="total"> 2688.54 2690.00</time>
   <energy>
    <i name="e_fr_energy">   -117.51117698</i>
    <i name="e_wo_entrp">   -117.51077206</i>
    <i name="e_0_energy">   -117.51097452</i>
   </energy>
  </scstep>
  <scstep>
   <time name="dav"> 2495.73 2497.20</time>
   <time name="total"> 2660.34 2661.89</time>
   <energy>
    <i name="e_fr_energy">   -117.51117341</i>
    <i name="e_wo_entrp">   -117.51076849</i>
    <i name="e_0_energy">   -117.51097095</i>
   </energy>
  </scstep>
  <scstep>
   <time name="dav"> 1689.88 1690.87</time>
   <time name="total"> 1826.95 1828.00</time>
   <energy>
    <i name="e_fr_energy">   -117.51117240</i>
    <i name="e_wo_entrp">   -117.51076747</i>
    <i name="e_0_energy">   -117.51096993</i>
   </energy>
  </scstep>
  <scstep>
   <time name="dav"> 1540.09 1540.59</time>
   <time name="total"> 1701.08 1701.68</time>
   <energy>
    <i name="e_fr_energy">   -117.51117233</i>
    <i name="e_wo_entrp">   -117.51076741</i>
    <i name="e_0_energy">   -117.51096987</i>
   </energy>
  </scstep>
  <scstep>
   <time name="dav"> 1600.35 1601.85</time>
   <time name="total"> 1764.56 1766.28</time>
   <energy>
    <i name="e_fr_energy">   -117.51117234</i>
    <i name="e_wo_entrp">   -117.51076742</i>
    <i name="e_0_energy">   -117.51096988</i>
   </energy>
  </scstep>
  <scstep>
   <time name="dav"> 1584.84 1586.84</time>
   <time name="total"> 1746.26 1748.40</time>
   <energy>
    <i name="e_fr_energy">   -117.51117237</i>
    <i name="e_wo_entrp">   -117.51076744</i>
    <i name="e_0_energy">   -117.51096990</i>
   </energy>
  </scstep>
  <scstep>
   <time name="dav"> 1674.98 1680.82</time>
   <time name="total"> 1680.75 1686.67</time>
   <energy>
    <i name="alphaZ">     -5.64355352</i>
    <i name="ewald">  -2242.66093683</i>
    <i name="hartreedc">     -3.33859741</i>
    <i name="XCdc">   -845.19286837</i>
    <i name="pawpsdc">   1130.25504357</i>
    <i name="pawaedc">   -107.50156225</i>
    <i name="eentropy">     -0.00040492</i>
    <i name="bandstr">    243.33661470</i>
    <i name="atom">   1713.23509266</i>
    <i name="e_fr_energy">   -117.51117237</i>
    <i name="e_wo_entrp">   -117.51076744</i>
    <i name="e_0_energy">   -117.51096991</i>
   </energy>
  </scstep>
  <structure>
   <crystal>
    <varray name="basis" >
     <v>       8.47834338      0.00000000      0.00000000</v>
     <v>       0.00000000      8.47834338      0.00000000</v>
     <v>       0.00000000      0.00000000      8.47834338</v>
    </varray>
    <i name="volume">    609.44287640</i>
    <varray name="rec_basis" >
     <v>       0.11794757      0.00000000      0.00000000</v>
     <v>       0.00000000      0.11794757      0.00000000</v>
     <v>       0.00000000      0.00000000      0.11794757</v>
    </varray>
   </crystal>
   <varray name="positions" >
    <v>       0.25117948      0.25000000      0.00000000</v>
    <v>       0.75000000      0.25000000      0.00000000</v>
    <v>       0.25000000      0.75000000      0.00000000</v>
    <v>       0.75000000      0.75000000      0.00000000</v>
    <v>       0.25000000      0.25000000      0.50000000</v>
    <v>       0.75000000      0.25000000      0.50000000</v>
    <v>       0.25000000      0.75000000      0.50000000</v>
    <v>       0.75000000      0.75000000      0.50000000</v>
    <v>       0.25000000      0.00000000      0.25000000</v>
    <v>       0.75000000      0.00000000      0.25000000</v>
    <v>       0.25000000      0.50000000      0.25000000</v>
    <v>       0.75000000      0.50000000      0.25000000</v>
    <v>       0.25000000      0.00000000      0.75000000</v>
    <v>       0.75000000      0.00000000      0.75000000</v>
    <v>       0.25000000      0.50000000      0.75000000</v>
    <v>       0.75000000      0.50000000      0.75000000</v>
    <v>       0.00000000      0.25000000      0.25000000</v>
    <v>       0.50000000      0.25000000      0.25000000</v>
    <v>       0.00000000      0.75000000      0.25000000</v>
    <v>       0.50000000      0.75000000      0.25000000</v>
    <v>       0.00000000      0.25000000      0.75000000</v>
    <v>       0.50000000      0.25000000      0.75000000</v>
    <v>       0.00000000      0.75000000      0.75000000</v>
    <v>       0.50000000      0.75000000      0.75000000</v>
    <v>       0.00000000      0.00000000      0.00000000</v>
    <v>       0.50000000      0.00000000      0.00000000</v>
    <v>       0.00000000      0.50000000      0.00000000</v>
    <v>       0.50000000      0.50000000      0.00000000</v>
    <v>       0.00000000      0.00000000      0.50000000</v>
    <v>       0.50000000      0.00000000      0.50000000</v>
    <v>       0.00000000      0.50000000      0.50000000</v>
    <v>       0.50000000      0.50000000      0.50000000</v>
   </varray>
  </structure>
  <varray name="forces" >
   <v>      -0.02433006     -0.00000000      0.00000000</v>
   <v>       0.00158381      0.00000000     -0.00000000</v>
   <v>      -0.00017786     -0.00000000      0.00000000</v>
   <v>       0.00048954     -0.00000000     -0.00000000</v>
   <v>      -0.00017786      0.00000000      0.00000000</v>
   <v>       0.00048954     -0.00000000      0.00000000</v>
   <v>       0.00022859     -0.00000000      0.00000000</v>
   <v>      -0.00053138      0.00000000      0.00000000</v>
   <v>      -0.00121119      0.00000760     -0.00000760</v>
   <v>      -0.00057314      0.00000312     -0.00000312</v>
   <v>      -0.00121119     -0.00000760     -0.00000760</v>
   <v>      -0.00057314     -0.00000312     -0.00000312</v>
   <v>      -0.00121119      0.00000760      0.00000760</v>
   <v>      -0.00057314      0.00000312      0.00000312</v>
   <v>      -0.00121119     -0.00000760      0.00000760</v>
   <v>      -0.00057314     -0.00000312      0.00000312</v>
   <v>       0.00370060      0.00000000     -0.00361898</v>
   <v>       0.00380008     -0.00000000      0.00374919</v>
   <v>      -0.00005422     -0.00000000      0.00014936</v>
   <v>      -0.00005571     -0.00000000     -0.00014887</v>
   <v>       0.00370060      0.00000000      0.00361898</v>
   <v>       0.00380008     -0.00000000     -0.00374919</v>
   <v>      -0.00005422     -0.00000000     -0.00014936</v>
   <v>      -0.00005571      0.00000000      0.00014887</v>
   <v>       0.00370060      0.00361898      0.00000000</v>
   <v>       0.00380008     -0.00374919      0.00000000</v>
   <v>       0.00370060     -0.00361898     -0.00000000</v>
   <v>       0.00380008      0.00374919      0.00000000</v>
   <v>      -0.00005422     -0.00014936     -0.00000000</v>
   <v>      -0.00005571      0.00014887      0.00000000</v>
   <v>      -0.00005422      0.00014936     -0.00000000</v>
   <v>      -0.00005571     -0.00014887      0.00000000</v>
  </varray>
  <varray name="stress" >
   <v>     -79.62993868     -0.00000000      0.00000000</v>
   <v>       0.00000000    -79.63044207      0.00000000</v>
   <v>       0.00000000      0.00000000    -79.63044207</v>
  </varray>
  <energy>
   <i name="e_fr_energy">   -117.51117237</i>
   <i name="e_wo_entrp">   -117.51096991</i>
   <i name="e_0_energy">     -0.00040492</i>
  </energy>
  <eigenvalues>
   <array>
    <dimension dim="1">band</dimension>
    <dimension dim="2">kpoint</dimension>
    <dimension dim="3">spin</dimension>
    <field>eigene</field>
    <field>occ</field>
    <set>
     <set comment="spin 1">
      <set comment="kpoint 1">
       <r>  -3.5983  1.0000</r>
       <r>  -1.5556  1.0000</r>
       <r>  -1.5521  1.0000</r>
       <r>  -1.5521  1.0000</r>
       <r>  -1.5521  1.0000</r>
       <r>  -1.5521  1.0000</r>
       <r>  -1.5487  1.0000</r>
       <r>   0.4622  1.0000</r>
       <r>   0.4665  1.0000</r>
       <r>   0.4665  1.0000</r>
       <r>   0.4680  1.0000</r>
       <r>   0.4681  1.0000</r>
       <r>   0.4681  1.0000</r>
       <r>   0.4681  1.0000</r>
       <r>   0.4681  1.0000</r>
       <r>   0.4682  1.0000</r>
       <r>   0.4697  1.0000</r>
       <r>   0.4697  1.0000</r>
       <r>   0.4741  1.0000</r>
       <r>   2.3830  1.0000</r>
       <r>   2.3830  1.0000</r>
       <r>   2.3830  1.0000</r>
       <r>   2.3830  1.0000</r>
       <r>   2.5471  1.0000</r>
       <r>   2.5471  1.0000</r>
       <r>   2.5471  1.0000</r>
       <r>   2.5471  1.0000</r>
       <r>   4.0040  1.0000</r>
       <r>   4.0040  1.0000</r>
       <r>   4.0041  1.0000</r>
       <r>   4.9681  1.0000</r>
       <r>   4.9682  1.0000</r>
       <r>   4.9682  1.0000</r>
       <r>   5.9140  1.0000</r>
       <r>   5.9140  1.0000</r>
       <r>   5.9179  1.0000</r>
       <r>   5.9179  1.0000</r>
       <r>   5.9180  1.0000</r>
       <r>   5.9180  1.0000</r>
       <r>   5.9180  1.0000</r>
       <r>   5.9181  1.0000</r>
       <r>   5.9181  1.0000</r>
       <r>   5.9181  1.0000</r>
       <r>   5.9221  1.0000</r>
       <r>   5.9221  1.0000</r>
       <r>   6.9389  0.0000</r>
       <r>   6.9397  0.0000</r>
       <r>   6.9398  0.0000</r>
       <r>   6.9398  0.0000</r>
       <r>   6.9398  0.0000</r>
       <r>   6.9406  0.0000</r>
       <r>   6.9843  0.0000</r>
       <r>   6.9881  0.0000</r>
       <r>   6.9881  0.0000</r>
       <r>   6.9881  0.0000</r>
       <r>   6.9881  0.0000</r>
       <r>   6.9918  0.0000</r>
       <r>   7.8289  0.0000</r>
       <r>   7.8294  0.0000</r>
       <r>   7.8308  0.0000</r>
       <r>   7.8327  0.0000</r>
       <r>   7.8328  0.0000</r>
       <r>   7.8328  0.0000</r>
       <r>   7.8328  0.0000</r>
       <r>   7.8329  0.0000</r>
       <r>   7.8347  0.0000</r>
       <r>   7.8362  0.0000</r>
       <r>   7.8366  0.0000</r>
      </set>
      <set comment="kpoint 2">
       <r>  -3.5841  1.0000</r>
       <r>  -1.8772  1.0000</r>
       <r>  -1.5380  1.0000</r>
       <r>  -1.5380  1.0000</r>
       <r>  -1.5380  1.0000</r>
       <r>  -1.5380  1.0000</r>
       <r>  -1.1995  1.0000</r>
       <r>   0.1471  1.0000</r>
       <r>   0.1471  1.0000</r>
       <r>   0.1471  1.0000</r>
       <r>   0.1471  1.0000</r>
       <r>   0.4820  1.0000</r>
       <r>   0.4820  1.0000</r>
       <r>   0.4820  1.0000</r>
       <r>   0.4820  1.0000</r>
       <r>   0.8163  1.0000</r>
       <r>   0.8163  1.0000</r>
       <r>   0.8163  1.0000</r>
       <r>   0.8163  1.0000</r>
       <r>   2.1378  1.0000</r>
       <r>   2.1378  1.0000</r>
       <r>   2.1378  1.0000</r>
       <r>   2.1378  1.0000</r>
       <r>   2.8191  1.0000</r>
       <r>   2.8191  1.0000</r>
       <r>   2.8191  1.0000</r>
       <r>   2.8191  1.0000</r>
       <r>   3.6824  1.0000</r>
       <r>   4.0173  1.0000</r>
       <r>   4.0173  1.0000</r>
       <r>   4.9822  1.0000</r>
       <r>   4.9822  1.0000</r>
       <r>   5.3150  1.0000</r>
       <r>   5.6118  1.0000</r>
       <r>   5.6118  1.0000</r>
       <r>   5.6182  1.0000</r>
       <r>   5.6183  1.0000</r>
       <r>   5.6184  1.0000</r>
       <r>   5.6184  1.0000</r>
       <r>   5.9313  1.0000</r>
       <r>   5.9313  1.0000</r>
       <r>   5.9313  1.0000</r>
       <r>   5.9313  1.0000</r>
       <r>   6.2507  1.0000</r>
       <r>   6.2507  1.0000</r>
       <r>   6.6488  0.0000</r>
       <r>   6.6488  0.0000</r>
       <r>   6.9765  0.0000</r>
       <r>   6.9765  0.0000</r>
       <r>   6.9765  0.0000</r>
       <r>   6.9765  0.0000</r>
       <r>   7.2889  0.0000</r>
       <r>   7.2893  0.0000</r>
       <r>   7.2893  0.0000</r>
       <r>   7.2893  0.0000</r>
       <r>   7.3041  0.0000</r>
       <r>   7.3045  0.0000</r>
       <r>   7.5267  0.0000</r>
       <r>   7.5267  0.0000</r>
       <r>   7.5269  0.0000</r>
       <r>   7.5269  0.0000</r>
       <r>   7.5446  0.0000</r>
       <r>   7.5446  0.0000</r>
       <r>   7.5447  0.0000</r>
       <r>   7.5447  0.0000</r>
       <r>   8.1652  0.0000</r>
       <r>   8.1652  0.0000</r>
       <r>   8.1652  0.0000</r>
      </set>
      <set comment="kpoint 3">
       <r>  -3.5412  1.0000</r>
       <r>  -2.1746  1.0000</r>
       <r>  -1.4957  1.0000</r>
       <r>  -1.4957  1.0000</r>
       <r>  -1.4957  1.0000</r>
       <r>  -1.4957  1.0000</r>
       <r>  -0.8197  1.0000</r>
       <r>  -0.1466  1.0000</r>
       <r>  -0.1466  1.0000</r>
       <r>  -0.1466  1.0000</r>
       <r>  -0.1466  1.0000</r>
       <r>   0.5238  1.0000</r>
       <r>   0.5238  1.0000</r>
       <r>   0.5238  1.0000</r>
       <r>   0.5238  1.0000</r>
       <r>   1.1914  1.0000</r>
       <r>   1.1914  1.0000</r>
       <r>   1.1914  1.0000</r>
       <r>   1.1914  1.0000</r>
       <r>   1.8526  1.0000</r>
       <r>   1.8526  1.0000</r>
       <r>   1.8526  1.0000</r>
       <r>   1.8526  1.0000</r>
       <r>   3.1338  1.0000</r>
       <r>   3.1848  1.0000</r>
       <r>   3.1848  1.0000</r>
       <r>   3.1848  1.0000</r>
       <r>   3.1849  1.0000</r>
       <r>   4.0571  1.0000</r>
       <r>   4.0571  1.0000</r>
       <r>   5.0244  1.0000</r>
       <r>   5.0244  1.0000</r>
       <r>   5.0875  1.0000</r>
       <r>   5.0875  1.0000</r>
       <r>   5.0875  1.0000</r>
       <r>   5.0876  1.0000</r>
       <r>   5.3328  1.0000</r>
       <r>   5.3328  1.0000</r>
       <r>   5.9391  1.0000</r>
       <r>   5.9712  1.0000</r>
       <r>   5.9712  1.0000</r>
       <r>   5.9712  1.0000</r>
       <r>   5.9712  1.0000</r>
       <r>   6.3608  1.0000</r>
       <r>   6.3608  1.0000</r>
       <r>   6.6100  0.0003</r>
       <r>   6.6100  0.0003</r>
       <r>   7.0181  0.0000</r>
       <r>   7.0184  0.0000</r>
       <r>   7.0184  0.0000</r>
       <r>   7.0186  0.0000</r>
       <r>   7.0258  0.0000</r>
       <r>   7.0260  0.0000</r>
       <r>   7.0260  0.0000</r>
       <r>   7.0263  0.0000</r>
       <r>   7.2476  0.0000</r>
       <r>   7.2476  0.0000</r>
       <r>   7.2477  0.0000</r>
       <r>   7.2477  0.0000</r>
       <r>   7.6672  0.0000</r>
       <r>   7.6672  0.0000</r>
       <r>   7.8923  0.0000</r>
       <r>   7.8923  0.0000</r>
       <r>   7.8923  0.0000</r>
       <r>   7.8923  0.0000</r>
       <r>   8.3194  0.0000</r>
       <r>   8.3194  0.0000</r>
       <r>   8.3194  0.0000</r>
      </set>
      <set comment="kpoint 4">
       <r>  -3.4697  1.0000</r>
       <r>  -2.4441  1.0000</r>
       <r>  -1.4252  1.0000</r>
       <r>  -1.4251  1.0000</r>
       <r>  -1.4251  1.0000</r>
       <r>  -1.4251  1.0000</r>
       <r>  -0.4153  1.0000</r>
       <r>  -0.4127  1.0000</r>
       <r>  -0.4127  1.0000</r>
       <r>  -0.4127  1.0000</r>
       <r>  -0.4103  1.0000</r>
       <r>   0.5934  1.0000</r>
       <r>   0.5934  1.0000</r>
       <r>   0.5934  1.0000</r>
       <r>   0.5934  1.0000</r>
       <r>   1.5889  1.0000</r>
       <r>   1.5908  1.0000</r>
       <r>   1.5908  1.0000</r>
       <r>   1.5914  1.0000</r>
       <r>   1.5933  1.0000</r>
       <r>   1.5938  1.0000</r>
       <r>   1.5938  1.0000</r>
       <r>   1.5958  1.0000</r>
       <r>   2.5662  1.0000</r>
       <r>   3.5802  1.0000</r>
       <r>   3.5802  1.0000</r>
       <r>   3.5802  1.0000</r>
       <r>   3.5802  1.0000</r>
       <r>   4.1235  1.0000</r>
       <r>   4.1235  1.0000</r>
       <r>   4.5314  1.0000</r>
       <r>   4.5314  1.0000</r>
       <r>   4.5314  1.0000</r>
       <r>   4.5314  1.0000</r>
       <r>   5.0802  1.0000</r>
       <r>   5.0802  1.0000</r>
       <r>   5.0947  1.0000</r>
       <r>   5.0947  1.0000</r>
       <r>   6.0376  1.0000</r>
       <r>   6.0376  1.0000</r>
       <r>   6.0376  1.0000</r>
       <r>   6.0377  1.0000</r>
       <r>   6.0986  1.0000</r>
       <r>   6.0986  1.0000</r>
       <r>   6.4789  1.0000</r>
       <r>   6.4789  1.0000</r>
       <r>   6.4789  1.0000</r>
       <r>   6.4789  1.0000</r>
       <r>   6.6324  0.0000</r>
       <r>   6.9933  0.0000</r>
       <r>   6.9933  0.0000</r>
       <r>   6.9950  0.0000</r>
       <r>   6.9950  0.0000</r>
       <r>   6.9978  0.0000</r>
       <r>   6.9978  0.0000</r>
       <r>   7.0872  0.0000</r>
       <r>   7.0872  0.0000</r>
       <r>   7.0872  0.0000</r>
       <r>   7.0872  0.0000</r>
       <r>   8.0537  0.0000</r>
       <r>   8.0537  0.0000</r>
       <r>   8.0642  0.0000</r>
       <r>   8.0642  0.0000</r>
       <r>   8.0644  0.0000</r>
       <r>   8.0644  0.0000</r>
       <r>   8.5701  0.0000</r>
       <r>   8.5701  0.0000</r>
       <r>   8.5701  0.0000</r>
      </set>
      <set comment="kpoint 5">
       <r>  -3.3697  1.0000</r>
       <r>  -2.6857  1.0000</r>
       <r>  -1.3265  1.0000</r>
       <r>  -1.3264  1.0000</r>
       <r>  -1.3264  1.0000</r>
       <r>  -1.3264  1.0000</r>
       <r>  -0.6512  1.0000</r>
       <r>  -0.6512  1.0000</r>
       <r>  -0.6512  1.0000</r>
       <r>  -0.6512  1.0000</r>
       <r>   0.0208  1.0000</r>
       <r>   0.6908  1.0000</r>
       <r>   0.6908  1.0000</r>
       <r>   0.6908  1.0000</r>
       <r>   0.6908  1.0000</r>
       <r>   1.3566  1.0000</r>
       <r>   1.3566  1.0000</r>
       <r>   1.3566  1.0000</r>
       <r>   1.3566  1.0000</r>
       <r>   2.0112  1.0000</r>
       <r>   2.0214  1.0000</r>
       <r>   2.0214  1.0000</r>
       <r>   2.0214  1.0000</r>
       <r>   2.0216  1.0000</r>
       <r>   3.9855  1.0000</r>
       <r>   3.9855  1.0000</r>
       <r>   3.9855  1.0000</r>
       <r>   3.9855  1.0000</r>
       <r>   4.0024  1.0000</r>
       <r>   4.0025  1.0000</r>
       <r>   4.0025  1.0000</r>
       <r>   4.0025  1.0000</r>
       <r>   4.2165  1.0000</r>
       <r>   4.2165  1.0000</r>
       <r>   4.8542  1.0000</r>
       <r>   4.8542  1.0000</r>
       <r>   5.1930  1.0000</r>
       <r>   5.1930  1.0000</r>
       <r>   5.8630  1.0000</r>
       <r>   5.8630  1.0000</r>
       <r>   5.9408  1.0000</r>
       <r>   5.9408  1.0000</r>
       <r>   5.9408  1.0000</r>
       <r>   5.9408  1.0000</r>
       <r>   6.1307  1.0000</r>
       <r>   6.1307  1.0000</r>
       <r>   6.1307  1.0000</r>
       <r>   6.1307  1.0000</r>
       <r>   6.7689  0.0000</r>
       <r>   6.7689  0.0000</r>
       <r>   6.7689  0.0000</r>
       <r>   6.7689  0.0000</r>
       <r>   7.1829  0.0000</r>
       <r>   7.1829  0.0000</r>
       <r>   7.1829  0.0000</r>
       <r>   7.1829  0.0000</r>
       <r>   7.3631  0.0000</r>
       <r>   7.4089  0.0000</r>
       <r>   7.4089  0.0000</r>
       <r>   7.8349  0.0000</r>
       <r>   7.8349  0.0000</r>
       <r>   7.8349  0.0000</r>
       <r>   7.8349  0.0000</r>
       <r>   8.4624  0.0000</r>
       <r>   8.4624  0.0000</r>
       <r>   9.2870  0.0000</r>
       <r>   9.2887  0.0000</r>
       <r>   9.2960  0.0000</r>
      </set>
      <set comment="kpoint 6">
       <r>  -3.2412  1.0000</r>
       <r>  -2.8991  1.0000</r>
       <r>  -1.1997  1.0000</r>
       <r>  -1.1996  1.0000</r>
       <r>  -1.1996  1.0000</r>
       <r>  -1.1996  1.0000</r>
       <r>  -0.8619  1.0000</r>
       <r>  -0.8619  1.0000</r>
       <r>  -0.8619  1.0000</r>
       <r>  -0.8619  1.0000</r>
       <r>   0.4807  1.0000</r>
       <r>   0.8158  1.0000</r>
       <r>   0.8159  1.0000</r>
       <r>   0.8159  1.0000</r>
       <r>   0.8159  1.0000</r>
       <r>   1.1489  1.0000</r>
       <r>   1.1489  1.0000</r>
       <r>   1.1489  1.0000</r>
       <r>   1.1489  1.0000</r>
       <r>   1.4771  1.0000</r>
       <r>   2.4756  1.0000</r>
       <r>   2.4756  1.0000</r>
       <r>   2.4756  1.0000</r>
       <r>   2.4756  1.0000</r>
       <r>   3.4589  1.0000</r>
       <r>   3.4589  1.0000</r>
       <r>   3.4589  1.0000</r>
       <r>   3.4589  1.0000</r>
       <r>   4.3360  1.0000</r>
       <r>   4.3360  1.0000</r>
       <r>   4.4506  1.0000</r>
       <r>   4.4506  1.0000</r>
       <r>   4.4506  1.0000</r>
       <r>   4.4506  1.0000</r>
       <r>   4.6549  1.0000</r>
       <r>   4.6549  1.0000</r>
       <r>   5.3191  1.0000</r>
       <r>   5.3191  1.0000</r>
       <r>   5.4212  1.0000</r>
       <r>   5.4212  1.0000</r>
       <r>   5.4212  1.0000</r>
       <r>   5.4212  1.0000</r>
       <r>   5.6544  1.0000</r>
       <r>   5.6544  1.0000</r>
       <r>   6.2503  1.0000</r>
       <r>   6.2503  1.0000</r>
       <r>   6.2504  1.0000</r>
       <r>   6.2504  1.0000</r>
       <r>   6.5694  0.9887</r>
       <r>   6.5695  0.9887</r>
       <r>   6.5695  0.9887</r>
       <r>   6.5695  0.9887</r>
       <r>   7.3057  0.0000</r>
       <r>   7.3057  0.0000</r>
       <r>   7.3057  0.0000</r>
       <r>   7.3057  0.0000</r>
       <r>   7.6319  0.0000</r>
       <r>   7.6319  0.0000</r>
       <r>   7.6319  0.0000</r>
       <r>   7.6319  0.0000</r>
       <r>   7.8484  0.0000</r>
       <r>   7.8484  0.0000</r>
       <r>   8.1230  0.0000</r>
       <r>   8.8073  0.0000</r>
       <r>   8.8073  0.0000</r>
       <r>   8.8908  0.0000</r>
       <r>   8.8908  0.0000</r>
       <r>   9.7525  0.0000</r>
      </set>
      <set comment="kpoint 7">
       <r>  -3.0857  1.0000</r>
       <r>  -3.0831  1.0000</r>
       <r>  -1.0484  1.0000</r>
       <r>  -1.0455  1.0000</r>
       <r>  -1.0455  1.0000</r>
       <r>  -1.0449  1.0000</r>
       <r>  -1.0447  1.0000</r>
       <r>  -1.0440  1.0000</r>
       <r>  -1.0440  1.0000</r>
       <r>  -1.0412  1.0000</r>
       <r>   0.9630  1.0000</r>
       <r>   0.9664  1.0000</r>
       <r>   0.9674  1.0000</r>
       <r>   0.9674  1.0000</r>
       <r>   0.9680  1.0000</r>
       <r>   0.9683  1.0000</r>
       <r>   0.9689  1.0000</r>
       <r>   0.9698  1.0000</r>
       <r>   0.9698  1.0000</r>
       <r>   0.9726  1.0000</r>
       <r>   2.9536  1.0000</r>
       <r>   2.9543  1.0000</r>
       <r>   2.9543  1.0000</r>
       <r>   2.9549  1.0000</r>
       <r>   2.9551  1.0000</r>
       <r>   2.9557  1.0000</r>
       <r>   2.9557  1.0000</r>
       <r>   2.9565  1.0000</r>
       <r>   4.4808  1.0000</r>
       <r>   4.4808  1.0000</r>
       <r>   4.4835  1.0000</r>
       <r>   4.4835  1.0000</r>
       <r>   4.9228  1.0000</r>
       <r>   4.9228  1.0000</r>
       <r>   4.9235  1.0000</r>
       <r>   4.9235  1.0000</r>
       <r>   4.9242  1.0000</r>
       <r>   4.9243  1.0000</r>
       <r>   4.9250  1.0000</r>
       <r>   4.9250  1.0000</r>
       <r>   5.4714  1.0000</r>
       <r>   5.4721  1.0000</r>
       <r>   5.4739  1.0000</r>
       <r>   5.4746  1.0000</r>
       <r>   6.3944  1.0000</r>
       <r>   6.3944  1.0000</r>
       <r>   6.3954  1.0000</r>
       <r>   6.3965  1.0000</r>
       <r>   6.3967  1.0000</r>
       <r>   6.3978  1.0000</r>
       <r>   6.3988  1.0000</r>
       <r>   6.3988  1.0000</r>
       <r>   7.4531  0.0000</r>
       <r>   7.4545  0.0000</r>
       <r>   7.4545  0.0000</r>
       <r>   7.4545  0.0000</r>
       <r>   7.4562  0.0000</r>
       <r>   7.4563  0.0000</r>
       <r>   7.4563  0.0000</r>
       <r>   7.4577  0.0000</r>
       <r>   8.3134  0.0000</r>
       <r>   8.3134  0.0000</r>
       <r>   8.3157  0.0000</r>
       <r>   8.3157  0.0000</r>
       <r>   8.9082  0.0000</r>
       <r>   8.9098  0.0000</r>
       <r>   9.3355  0.0000</r>
       <r>   9.3369  0.0000</r>
      </set>
      <set comment="kpoint 8">
       <r>  -3.5841  1.0000</r>
       <r>  -1.8772  1.0000</r>
       <r>  -1.5407  1.0000</r>
       <r>  -1.5380  1.0000</r>
       <r>  -1.5380  1.0000</r>
       <r>  -1.5353  1.0000</r>
       <r>  -1.1995  1.0000</r>
       <r>   0.1444  1.0000</r>
       <r>   0.1471  1.0000</r>
       <r>   0.1471  1.0000</r>
       <r>   0.1497  1.0000</r>
       <r>   0.4799  1.0000</r>
       <r>   0.4810  1.0000</r>
       <r>   0.4830  1.0000</r>
       <r>   0.4842  1.0000</r>
       <r>   0.8136  1.0000</r>
       <r>   0.8163  1.0000</r>
       <r>   0.8163  1.0000</r>
       <r>   0.8190  1.0000</r>
       <r>   2.1358  1.0000</r>
       <r>   2.1368  1.0000</r>
       <r>   2.1388  1.0000</r>
       <r>   2.1399  1.0000</r>
       <r>   2.8170  1.0000</r>
       <r>   2.8181  1.0000</r>
       <r>   2.8201  1.0000</r>
       <r>   2.8212  1.0000</r>
       <r>   3.6824  1.0000</r>
       <r>   4.0173  1.0000</r>
       <r>   4.0173  1.0000</r>
       <r>   4.9822  1.0000</r>
       <r>   4.9822  1.0000</r>
       <r>   5.3150  1.0000</r>
       <r>   5.6111  1.0000</r>
       <r>   5.6120  1.0000</r>
       <r>   5.6160  1.0000</r>
       <r>   5.6182  1.0000</r>
       <r>   5.6182  1.0000</r>
       <r>   5.6214  1.0000</r>
       <r>   5.9288  1.0000</r>
       <r>   5.9313  1.0000</r>
       <r>   5.9313  1.0000</r>
       <r>   5.9338  1.0000</r>
       <r>   6.2507  1.0000</r>
       <r>   6.2507  1.0000</r>
       <r>   6.6488  0.0000</r>
       <r>   6.6488  0.0000</r>
       <r>   6.9747  0.0000</r>
       <r>   6.9765  0.0000</r>
       <r>   6.9765  0.0000</r>
       <r>   6.9783  0.0000</r>
       <r>   7.2867  0.0000</r>
       <r>   7.2893  0.0000</r>
       <r>   7.2893  0.0000</r>
       <r>   7.2918  0.0000</r>
       <r>   7.3041  0.0000</r>
       <r>   7.3042  0.0000</r>
       <r>   7.5243  0.0000</r>
       <r>   7.5267  0.0000</r>
       <r>   7.5269  0.0000</r>
       <r>   7.5293  0.0000</r>
       <r>   7.5422  0.0000</r>
       <r>   7.5437  0.0000</r>
       <r>   7.5456  0.0000</r>
       <r>   7.5471  0.0000</r>
       <r>   8.1632  0.0000</r>
       <r>   8.1652  0.0000</r>
       <r>   8.1672  0.0000</r>
      </set>
      <set comment="kpoint 9">
       <r>  -3.5698  1.0000</r>
       <r>  -1.8641  1.0000</r>
       <r>  -1.8620  1.0000</r>
       <r>  -1.5239  1.0000</r>
       <r>  -1.5239  1.0000</r>
       <r>  -1.1865  1.0000</r>
       <r>  -1.1844  1.0000</r>
       <r>  -0.1746  1.0000</r>
       <r>   0.1595  1.0000</r>
       <r>   0.1604  1.0000</r>
       <r>   0.1617  1.0000</r>
       <r>   0.1626  1.0000</r>
       <r>   0.4954  1.0000</r>
       <r>   0.4965  1.0000</r>
       <r>   0.8287  1.0000</r>
       <r>   0.8296  1.0000</r>
       <r>   0.8308  1.0000</r>
       <r>   0.8317  1.0000</r>
       <r>   1.1638  1.0000</r>
       <r>   1.8249  1.0000</r>
       <r>   1.8249  1.0000</r>
       <r>   2.4113  1.0000</r>
       <r>   2.4113  1.0000</r>
       <r>   2.5737  1.0000</r>
       <r>   2.5737  1.0000</r>
       <r>   3.1576  1.0000</r>
       <r>   3.1576  1.0000</r>
       <r>   3.6954  1.0000</r>
       <r>   3.6963  1.0000</r>
       <r>   4.0306  1.0000</r>
       <r>   4.9963  1.0000</r>
       <r>   5.3086  1.0000</r>
       <r>   5.3108  1.0000</r>
       <r>   5.3284  1.0000</r>
       <r>   5.3293  1.0000</r>
       <r>   5.6218  1.0000</r>
       <r>   5.6225  1.0000</r>
       <r>   5.6245  1.0000</r>
       <r>   5.6268  1.0000</r>
       <r>   5.6409  1.0000</r>
       <r>   5.6410  1.0000</r>
       <r>   5.9526  1.0000</r>
       <r>   5.9537  1.0000</r>
       <r>   6.2628  1.0000</r>
       <r>   6.2652  1.0000</r>
       <r>   6.6624  0.0000</r>
       <r>   6.6643  0.0000</r>
       <r>   6.9750  0.0000</r>
       <r>   6.9757  0.0000</r>
       <r>   7.2209  0.0000</r>
       <r>   7.2361  0.0000</r>
       <r>   7.2370  0.0000</r>
       <r>   7.2383  0.0000</r>
       <r>   7.2391  0.0000</r>
       <r>   7.2850  0.0000</r>
       <r>   7.2850  0.0000</r>
       <r>   7.3165  0.0000</r>
       <r>   7.3182  0.0000</r>
       <r>   7.3184  0.0000</r>
       <r>   7.3198  0.0000</r>
       <r>   7.6241  0.0000</r>
       <r>   7.6261  0.0000</r>
       <r>   7.8585  0.0000</r>
       <r>   7.8603  0.0000</r>
       <r>   7.8767  0.0000</r>
       <r>   7.8778  0.0000</r>
       <r>   7.8779  0.0000</r>
       <r>   7.8789  0.0000</r>
      </set>
      <set comment="kpoint 10">
       <r>  -3.5269  1.0000</r>
       <r>  -2.1604  1.0000</r>
       <r>  -1.8206  1.0000</r>
       <r>  -1.4816  1.0000</r>
       <r>  -1.4816  1.0000</r>
       <r>  -1.1432  1.0000</r>
       <r>  -0.8057  1.0000</r>
       <r>  -0.4688  1.0000</r>
       <r>  -0.1326  1.0000</r>
       <r>  -0.1326  1.0000</r>
       <r>   0.2023  1.0000</r>
       <r>   0.2029  1.0000</r>
       <r>   0.2035  1.0000</r>
       <r>   0.8712  1.0000</r>
       <r>   0.8719  1.0000</r>
       <r>   0.8725  1.0000</r>
       <r>   1.2053  1.0000</r>
       <r>   1.2053  1.0000</r>
       <r>   1.5357  1.0000</r>
       <r>   1.5359  1.0000</r>
       <r>   1.5382  1.0000</r>
       <r>   2.1933  1.0000</r>
       <r>   2.1933  1.0000</r>
       <r>   2.8735  1.0000</r>
       <r>   2.8735  1.0000</r>
       <r>   3.1474  1.0000</r>
       <r>   3.5259  1.0000</r>
       <r>   3.5259  1.0000</r>
       <r>   3.7363  1.0000</r>
       <r>   4.0704  1.0000</r>
       <r>   4.7766  1.0000</r>
       <r>   5.0278  1.0000</r>
       <r>   5.0385  1.0000</r>
       <r>   5.1008  1.0000</r>
       <r>   5.1008  1.0000</r>
       <r>   5.3461  1.0000</r>
       <r>   5.3704  1.0000</r>
       <r>   5.4248  1.0000</r>
       <r>   5.6652  1.0000</r>
       <r>   5.6723  1.0000</r>
       <r>   5.6723  1.0000</r>
       <r>   5.9528  1.0000</r>
       <r>   6.3038  1.0000</r>
       <r>   6.3116  1.0000</r>
       <r>   6.3780  1.0000</r>
       <r>   6.6233  0.0000</r>
       <r>   6.6904  0.0000</r>
       <r>   6.7048  0.0000</r>
       <r>   6.7174  0.0000</r>
       <r>   6.7176  0.0000</r>
       <r>   6.9417  0.0000</r>
       <r>   6.9571  0.0000</r>
       <r>   6.9571  0.0000</r>
       <r>   7.3420  0.0000</r>
       <r>   7.3421  0.0000</r>
       <r>   7.3564  0.0000</r>
       <r>   7.3604  0.0000</r>
       <r>   7.3609  0.0000</r>
       <r>   7.5802  0.0000</r>
       <r>   7.5845  0.0000</r>
       <r>   7.6808  0.0000</r>
       <r>   7.9058  0.0000</r>
       <r>   7.9058  0.0000</r>
       <r>   7.9861  0.0000</r>
       <r>   8.0112  0.0000</r>
       <r>   8.2192  0.0000</r>
       <r>   8.2269  0.0000</r>
       <r>   8.2373  0.0000</r>
      </set>
      <set comment="kpoint 11">
       <r>  -3.4554  1.0000</r>
       <r>  -2.4299  1.0000</r>
       <r>  -1.7500  1.0000</r>
       <r>  -1.4110  1.0000</r>
       <r>  -1.4110  1.0000</r>
       <r>  -1.0729  1.0000</r>
       <r>  -0.7355  1.0000</r>
       <r>  -0.4005  1.0000</r>
       <r>  -0.3987  1.0000</r>
       <r>  -0.3970  1.0000</r>
       <r>  -0.0626  1.0000</r>
       <r>   0.2726  1.0000</r>
       <r>   0.2726  1.0000</r>
       <r>   0.9413  1.0000</r>
       <r>   0.9413  1.0000</r>
       <r>   1.2720  1.0000</r>
       <r>   1.2732  1.0000</r>
       <r>   1.2757  1.0000</r>
       <r>   1.6071  1.0000</r>
       <r>   1.6071  1.0000</r>
       <r>   1.9350  1.0000</r>
       <r>   1.9358  1.0000</r>
       <r>   1.9398  1.0000</r>
       <r>   2.5799  1.0000</r>
       <r>   3.2665  1.0000</r>
       <r>   3.2665  1.0000</r>
       <r>   3.8037  1.0000</r>
       <r>   3.9213  1.0000</r>
       <r>   3.9213  1.0000</r>
       <r>   4.1368  1.0000</r>
       <r>   4.2189  1.0000</r>
       <r>   4.5449  1.0000</r>
       <r>   4.5449  1.0000</r>
       <r>   4.7726  1.0000</r>
       <r>   4.8705  1.0000</r>
       <r>   5.0935  1.0000</r>
       <r>   5.1088  1.0000</r>
       <r>   5.4397  1.0000</r>
       <r>   5.7317  1.0000</r>
       <r>   5.7392  1.0000</r>
       <r>   5.7393  1.0000</r>
       <r>   6.1122  1.0000</r>
       <r>   6.1693  1.0000</r>
       <r>   6.1693  1.0000</r>
       <r>   6.3703  1.0000</r>
       <r>   6.4310  1.0000</r>
       <r>   6.6460  0.0000</r>
       <r>   6.6890  0.0000</r>
       <r>   6.7011  0.0000</r>
       <r>   6.7032  0.0000</r>
       <r>   6.7051  0.0000</r>
       <r>   6.7737  0.0000</r>
       <r>   6.8147  0.0000</r>
       <r>   6.8147  0.0000</r>
       <r>   7.0094  0.0000</r>
       <r>   7.3276  0.0000</r>
       <r>   7.4101  0.0000</r>
       <r>   7.4102  0.0000</r>
       <r>   7.4257  0.0000</r>
       <r>   7.7549  0.0000</r>
       <r>   8.0673  0.0000</r>
       <r>   8.2641  0.0000</r>
       <r>   8.3705  0.0000</r>
       <r>   8.3801  0.0000</r>
       <r>   8.3804  0.0000</r>
       <r>   8.3982  0.0000</r>
       <r>   8.5840  0.0000</r>
       <r>   8.5853  0.0000</r>
      </set>
      <set comment="kpoint 12">
       <r>  -3.3554  1.0000</r>
       <r>  -2.6715  1.0000</r>
       <r>  -1.6511  1.0000</r>
       <r>  -1.3124  1.0000</r>
       <r>  -1.3123  1.0000</r>
       <r>  -0.9750  1.0000</r>
       <r>  -0.9739  1.0000</r>
       <r>  -0.6372  1.0000</r>
       <r>  -0.6372  1.0000</r>
       <r>  -0.3006  1.0000</r>
       <r>   0.0347  1.0000</r>
       <r>   0.3702  1.0000</r>
       <r>   0.3702  1.0000</r>
       <r>   1.0373  1.0000</r>
       <r>   1.0375  1.0000</r>
       <r>   1.0386  1.0000</r>
       <r>   1.0388  1.0000</r>
       <r>   1.7020  1.0000</r>
       <r>   1.7023  1.0000</r>
       <r>   1.7037  1.0000</r>
       <r>   2.0250  1.0000</r>
       <r>   2.0352  1.0000</r>
       <r>   2.0353  1.0000</r>
       <r>   2.3663  1.0000</r>
       <r>   3.6716  1.0000</r>
       <r>   3.6887  1.0000</r>
       <r>   3.6887  1.0000</r>
       <r>   3.8980  1.0000</r>
       <r>   3.9991  1.0000</r>
       <r>   3.9991  1.0000</r>
       <r>   4.2298  1.0000</r>
       <r>   4.3259  1.0000</r>
       <r>   4.3431  1.0000</r>
       <r>   4.3431  1.0000</r>
       <r>   4.5440  1.0000</r>
       <r>   4.8675  1.0000</r>
       <r>   5.2070  1.0000</r>
       <r>   5.5366  1.0000</r>
       <r>   5.6301  1.0000</r>
       <r>   5.6301  1.0000</r>
       <r>   5.8247  1.0000</r>
       <r>   5.8331  1.0000</r>
       <r>   5.8331  1.0000</r>
       <r>   5.8769  1.0000</r>
       <r>   6.1981  1.0000</r>
       <r>   6.2778  1.0000</r>
       <r>   6.2778  1.0000</r>
       <r>   6.4623  1.0000</r>
       <r>   6.4640  1.0000</r>
       <r>   6.4758  1.0000</r>
       <r>   6.4758  1.0000</r>
       <r>   6.8697  0.0000</r>
       <r>   7.1016  0.0000</r>
       <r>   7.1167  0.0000</r>
       <r>   7.3766  0.0000</r>
       <r>   7.4222  0.0000</r>
       <r>   7.5050  0.0000</r>
       <r>   7.5050  0.0000</r>
       <r>   7.5210  0.0000</r>
       <r>   7.5246  0.0000</r>
       <r>   8.1523  0.0000</r>
       <r>   8.1523  0.0000</r>
       <r>   8.1700  0.0000</r>
       <r>   8.4758  0.0000</r>
       <r>   8.7776  0.0000</r>
       <r>   8.9849  0.0000</r>
       <r>   9.0195  0.0000</r>
       <r>   9.0303  0.0000</r>
      </set>
      <set comment="kpoint 13">
       <r>  -3.2270  1.0000</r>
       <r>  -2.8849  1.0000</r>
       <r>  -1.5240  1.0000</r>
       <r>  -1.1868  1.0000</r>
       <r>  -1.1856  1.0000</r>
       <r>  -1.1843  1.0000</r>
       <r>  -0.8491  1.0000</r>
       <r>  -0.8479  1.0000</r>
       <r>  -0.8466  1.0000</r>
       <r>  -0.5109  1.0000</r>
       <r>   0.4937  1.0000</r>
       <r>   0.4956  1.0000</r>
       <r>   0.4965  1.0000</r>
       <r>   0.8294  1.0000</r>
       <r>   0.8294  1.0000</r>
       <r>   1.1632  1.0000</r>
       <r>   1.1632  1.0000</r>
       <r>   1.4906  1.0000</r>
       <r>   1.4953  1.0000</r>
       <r>   1.4957  1.0000</r>
       <r>   2.1585  1.0000</r>
       <r>   2.4893  1.0000</r>
       <r>   2.4893  1.0000</r>
       <r>   2.8195  1.0000</r>
       <r>   3.1439  1.0000</r>
       <r>   3.4725  1.0000</r>
       <r>   3.4725  1.0000</r>
       <r>   3.8006  1.0000</r>
       <r>   4.0192  1.0000</r>
       <r>   4.1374  1.0000</r>
       <r>   4.1374  1.0000</r>
       <r>   4.3423  1.0000</r>
       <r>   4.3493  1.0000</r>
       <r>   4.6681  1.0000</r>
       <r>   4.7905  1.0000</r>
       <r>   4.7905  1.0000</r>
       <r>   5.1096  1.0000</r>
       <r>   5.1096  1.0000</r>
       <r>   5.3331  1.0000</r>
       <r>   5.6610  1.0000</r>
       <r>   5.6683  1.0000</r>
       <r>   5.7593  1.0000</r>
       <r>   5.7593  1.0000</r>
       <r>   5.9444  1.0000</r>
       <r>   5.9536  1.0000</r>
       <r>   5.9536  1.0000</r>
       <r>   5.9920  1.0000</r>
       <r>   6.2635  1.0000</r>
       <r>   6.2750  1.0000</r>
       <r>   6.2750  1.0000</r>
       <r>   6.5830  0.6411</r>
       <r>   6.9021  0.0000</r>
       <r>   6.9930  0.0000</r>
       <r>   7.3207  0.0000</r>
       <r>   7.5564  0.0000</r>
       <r>   7.6268  0.0000</r>
       <r>   7.6268  0.0000</r>
       <r>   7.6432  0.0000</r>
       <r>   7.8617  0.0000</r>
       <r>   7.9506  0.0000</r>
       <r>   7.9506  0.0000</r>
       <r>   7.9679  0.0000</r>
       <r>   8.1365  0.0000</r>
       <r>   8.5117  0.0000</r>
       <r>   8.8206  0.0000</r>
       <r>   8.9041  0.0000</r>
       <r>   9.2048  0.0000</r>
       <r>   9.4579  0.0000</r>
      </set>
      <set comment="kpoint 14">
       <r>  -3.0714  1.0000</r>
       <r>  -3.0688  1.0000</r>
       <r>  -1.3701  1.0000</r>
       <r>  -1.3675  1.0000</r>
       <r>  -1.0326  1.0000</r>
       <r>  -1.0314  1.0000</r>
       <r>  -1.0300  1.0000</r>
       <r>  -1.0289  1.0000</r>
       <r>  -0.6946  1.0000</r>
       <r>  -0.6920  1.0000</r>
       <r>   0.6468  1.0000</r>
       <r>   0.6479  1.0000</r>
       <r>   0.6494  1.0000</r>
       <r>   0.6505  1.0000</r>
       <r>   0.9795  1.0000</r>
       <r>   0.9810  1.0000</r>
       <r>   1.3137  1.0000</r>
       <r>   1.3148  1.0000</r>
       <r>   1.3163  1.0000</r>
       <r>   1.3174  1.0000</r>
       <r>   2.6382  1.0000</r>
       <r>   2.6397  1.0000</r>
       <r>   2.9679  1.0000</r>
       <r>   2.9680  1.0000</r>
       <r>   2.9694  1.0000</r>
       <r>   2.9695  1.0000</r>
       <r>   3.2971  1.0000</r>
       <r>   3.2986  1.0000</r>
       <r>   4.1660  1.0000</r>
       <r>   4.1686  1.0000</r>
       <r>   4.4940  1.0000</r>
       <r>   4.4968  1.0000</r>
       <r>   4.6106  1.0000</r>
       <r>   4.6106  1.0000</r>
       <r>   4.6121  1.0000</r>
       <r>   4.6121  1.0000</r>
       <r>   5.2622  1.0000</r>
       <r>   5.2622  1.0000</r>
       <r>   5.2637  1.0000</r>
       <r>   5.2637  1.0000</r>
       <r>   5.4858  1.0000</r>
       <r>   5.4882  1.0000</r>
       <r>   5.8117  1.0000</r>
       <r>   5.8142  1.0000</r>
       <r>   6.0892  1.0000</r>
       <r>   6.0919  1.0000</r>
       <r>   6.0989  1.0000</r>
       <r>   6.1004  1.0000</r>
       <r>   6.1017  1.0000</r>
       <r>   6.1030  1.0000</r>
       <r>   6.7279  0.0000</r>
       <r>   6.7307  0.0000</r>
       <r>   7.1422  0.0000</r>
       <r>   7.1446  0.0000</r>
       <r>   7.7737  0.0000</r>
       <r>   7.7745  0.0000</r>
       <r>   7.7763  0.0000</r>
       <r>   7.7770  0.0000</r>
       <r>   7.7911  0.0000</r>
       <r>   7.7935  0.0000</r>
       <r>   8.0207  0.0000</r>
       <r>   8.0226  0.0000</r>
       <r>   8.3267  0.0000</r>
       <r>   8.3290  0.0000</r>
       <r>   8.9215  0.0000</r>
       <r>   8.9231  0.0000</r>
       <r>   9.3491  0.0000</r>
       <r>   9.3497  0.0000</r>
      </set>
      <set comment="kpoint 15">
       <r>  -3.5412  1.0000</r>
       <r>  -2.1746  1.0000</r>
       <r>  -1.4983  1.0000</r>
       <r>  -1.4957  1.0000</r>
       <r>  -1.4957  1.0000</r>
       <r>  -1.4930  1.0000</r>
       <r>  -0.8197  1.0000</r>
       <r>  -0.1492  1.0000</r>
       <r>  -0.1466  1.0000</r>
       <r>  -0.1466  1.0000</r>
       <r>  -0.1439  1.0000</r>
       <r>   0.5217  1.0000</r>
       <r>   0.5228  1.0000</r>
       <r>   0.5248  1.0000</r>
       <r>   0.5259  1.0000</r>
       <r>   1.1888  1.0000</r>
       <r>   1.1914  1.0000</r>
       <r>   1.1914  1.0000</r>
       <r>   1.1941  1.0000</r>
       <r>   1.8505  1.0000</r>
       <r>   1.8516  1.0000</r>
       <r>   1.8536  1.0000</r>
       <r>   1.8547  1.0000</r>
       <r>   3.1337  1.0000</r>
       <r>   3.1827  1.0000</r>
       <r>   3.1838  1.0000</r>
       <r>   3.1858  1.0000</r>
       <r>   3.1869  1.0000</r>
       <r>   4.0572  1.0000</r>
       <r>   4.0572  1.0000</r>
       <r>   5.0244  1.0000</r>
       <r>   5.0245  1.0000</r>
       <r>   5.0847  1.0000</r>
       <r>   5.0875  1.0000</r>
       <r>   5.0875  1.0000</r>
       <r>   5.0903  1.0000</r>
       <r>   5.3328  1.0000</r>
       <r>   5.3328  1.0000</r>
       <r>   5.9391  1.0000</r>
       <r>   5.9687  1.0000</r>
       <r>   5.9712  1.0000</r>
       <r>   5.9712  1.0000</r>
       <r>   5.9737  1.0000</r>
       <r>   6.3607  1.0000</r>
       <r>   6.3608  1.0000</r>
       <r>   6.6100  0.0003</r>
       <r>   6.6100  0.0003</r>
       <r>   7.0167  0.0000</r>
       <r>   7.0185  0.0000</r>
       <r>   7.0186  0.0000</r>
       <r>   7.0204  0.0000</r>
       <r>   7.0235  0.0000</r>
       <r>   7.0248  0.0000</r>
       <r>   7.0267  0.0000</r>
       <r>   7.0281  0.0000</r>
       <r>   7.2451  0.0000</r>
       <r>   7.2476  0.0000</r>
       <r>   7.2477  0.0000</r>
       <r>   7.2502  0.0000</r>
       <r>   7.6672  0.0000</r>
       <r>   7.6672  0.0000</r>
       <r>   7.8898  0.0000</r>
       <r>   7.8923  0.0000</r>
       <r>   7.8923  0.0000</r>
       <r>   7.8949  0.0000</r>
       <r>   8.3180  0.0000</r>
       <r>   8.3194  0.0000</r>
       <r>   8.3213  0.0000</r>
      </set>
      <set comment="kpoint 16">
       <r>  -3.5269  1.0000</r>
       <r>  -2.1604  1.0000</r>
       <r>  -1.8206  1.0000</r>
       <r>  -1.4816  1.0000</r>
       <r>  -1.4816  1.0000</r>
       <r>  -1.1432  1.0000</r>
       <r>  -0.8057  1.0000</r>
       <r>  -0.4688  1.0000</r>
       <r>  -0.1326  1.0000</r>
       <r>  -0.1326  1.0000</r>
       <r>   0.2015  1.0000</r>
       <r>   0.2029  1.0000</r>
       <r>   0.2043  1.0000</r>
       <r>   0.8704  1.0000</r>
       <r>   0.8719  1.0000</r>
       <r>   0.8732  1.0000</r>
       <r>   1.2053  1.0000</r>
       <r>   1.2053  1.0000</r>
       <r>   1.5357  1.0000</r>
       <r>   1.5359  1.0000</r>
       <r>   1.5382  1.0000</r>
       <r>   2.1933  1.0000</r>
       <r>   2.1933  1.0000</r>
       <r>   2.8735  1.0000</r>
       <r>   2.8735  1.0000</r>
       <r>   3.1474  1.0000</r>
       <r>   3.5259  1.0000</r>
       <r>   3.5259  1.0000</r>
       <r>   3.7363  1.0000</r>
       <r>   4.0704  1.0000</r>
       <r>   4.7766  1.0000</r>
       <r>   5.0278  1.0000</r>
       <r>   5.0385  1.0000</r>
       <r>   5.1008  1.0000</r>
       <r>   5.1008  1.0000</r>
       <r>   5.3461  1.0000</r>
       <r>   5.3705  1.0000</r>
       <r>   5.4248  1.0000</r>
       <r>   5.6650  1.0000</r>
       <r>   5.6723  1.0000</r>
       <r>   5.6725  1.0000</r>
       <r>   5.9528  1.0000</r>
       <r>   6.3038  1.0000</r>
       <r>   6.3116  1.0000</r>
       <r>   6.3780  1.0000</r>
       <r>   6.6233  0.0000</r>
       <r>   6.6904  0.0000</r>
       <r>   6.7049  0.0000</r>
       <r>   6.7174  0.0000</r>
       <r>   6.7174  0.0000</r>
       <r>   6.9416  0.0000</r>
       <r>   6.9571  0.0000</r>
       <r>   6.9572  0.0000</r>
       <r>   7.3420  0.0000</r>
       <r>   7.3421  0.0000</r>
       <r>   7.3569  0.0000</r>
       <r>   7.3603  0.0000</r>
       <r>   7.3604  0.0000</r>
       <r>   7.5802  0.0000</r>
       <r>   7.5845  0.0000</r>
       <r>   7.6808  0.0000</r>
       <r>   7.9058  0.0000</r>
       <r>   7.9058  0.0000</r>
       <r>   7.9861  0.0000</r>
       <r>   8.0112  0.0000</r>
       <r>   8.2212  0.0000</r>
       <r>   8.2297  0.0000</r>
       <r>   8.2374  0.0000</r>
      </set>
      <set comment="kpoint 17">
       <r>  -3.4840  1.0000</r>
       <r>  -2.1190  1.0000</r>
       <r>  -2.1168  1.0000</r>
       <r>  -1.4393  1.0000</r>
       <r>  -1.4392  1.0000</r>
       <r>  -0.7653  1.0000</r>
       <r>  -0.7635  1.0000</r>
       <r>  -0.7618  1.0000</r>
       <r>  -0.0922  1.0000</r>
       <r>  -0.0913  1.0000</r>
       <r>  -0.0900  1.0000</r>
       <r>  -0.0891  1.0000</r>
       <r>   0.5789  1.0000</r>
       <r>   0.5800  1.0000</r>
       <r>   1.2439  1.0000</r>
       <r>   1.2449  1.0000</r>
       <r>   1.2463  1.0000</r>
       <r>   1.2465  1.0000</r>
       <r>   1.2477  1.0000</r>
       <r>   1.2489  1.0000</r>
       <r>   1.9116  1.0000</r>
       <r>   2.4961  1.0000</r>
       <r>   2.4961  1.0000</r>
       <r>   2.6538  1.0000</r>
       <r>   2.6538  1.0000</r>
       <r>   3.1878  1.0000</r>
       <r>   3.1888  1.0000</r>
       <r>   3.8943  1.0000</r>
       <r>   3.8943  1.0000</r>
       <r>   4.1103  1.0000</r>
       <r>   4.4913  1.0000</r>
       <r>   4.4935  1.0000</r>
       <r>   5.0806  1.0000</r>
       <r>   5.1220  1.0000</r>
       <r>   5.1221  1.0000</r>
       <r>   5.1614  1.0000</r>
       <r>   5.1614  1.0000</r>
       <r>   5.3847  1.0000</r>
       <r>   5.3871  1.0000</r>
       <r>   5.7877  1.0000</r>
       <r>   5.7886  1.0000</r>
       <r>   5.9934  1.0000</r>
       <r>   5.9945  1.0000</r>
       <r>   6.4159  1.0000</r>
       <r>   6.4179  1.0000</r>
       <r>   6.4341  1.0000</r>
       <r>   6.4348  1.0000</r>
       <r>   6.4362  1.0000</r>
       <r>   6.4372  1.0000</r>
       <r>   6.6608  0.0000</r>
       <r>   6.6629  0.0000</r>
       <r>   6.6651  0.0000</r>
       <r>   7.2995  0.0000</r>
       <r>   7.3002  0.0000</r>
       <r>   7.7192  0.0000</r>
       <r>   7.7207  0.0000</r>
       <r>   7.7210  0.0000</r>
       <r>   7.7210  0.0000</r>
       <r>   7.7218  0.0000</r>
       <r>   7.7234  0.0000</r>
       <r>   7.7285  0.0000</r>
       <r>   7.9345  0.0000</r>
       <r>   7.9346  0.0000</r>
       <r>   7.9386  0.0000</r>
       <r>   7.9404  0.0000</r>
       <r>   7.9572  0.0000</r>
       <r>   7.9573  0.0000</r>
       <r>   8.5830  0.0000</r>
      </set>
      <set comment="kpoint 18">
       <r>  -3.4126  1.0000</r>
       <r>  -2.3874  1.0000</r>
       <r>  -2.0471  1.0000</r>
       <r>  -1.3687  1.0000</r>
       <r>  -1.3687  1.0000</r>
       <r>  -1.0308  1.0000</r>
       <r>  -0.6933  1.0000</r>
       <r>  -0.3585  1.0000</r>
       <r>  -0.3567  1.0000</r>
       <r>  -0.3550  1.0000</r>
       <r>  -0.0208  1.0000</r>
       <r>  -0.0208  1.0000</r>
       <r>   0.3145  1.0000</r>
       <r>   0.9806  1.0000</r>
       <r>   0.9820  1.0000</r>
       <r>   0.9842  1.0000</r>
       <r>   1.3161  1.0000</r>
       <r>   1.3161  1.0000</r>
       <r>   1.6485  1.0000</r>
       <r>   1.6486  1.0000</r>
       <r>   2.3038  1.0000</r>
       <r>   2.3042  1.0000</r>
       <r>   2.3120  1.0000</r>
       <r>   2.6211  1.0000</r>
       <r>   2.9823  1.0000</r>
       <r>   2.9823  1.0000</r>
       <r>   3.2564  1.0000</r>
       <r>   3.9331  1.0000</r>
       <r>   4.1766  1.0000</r>
       <r>   4.2349  1.0000</r>
       <r>   4.2892  1.0000</r>
       <r>   4.2892  1.0000</r>
       <r>   4.5851  1.0000</r>
       <r>   4.5851  1.0000</r>
       <r>   5.1333  1.0000</r>
       <r>   5.1509  1.0000</r>
       <r>   5.2102  1.0000</r>
       <r>   5.2102  1.0000</r>
       <r>   5.2358  1.0000</r>
       <r>   5.4524  1.0000</r>
       <r>   5.8862  1.0000</r>
       <r>   5.8862  1.0000</r>
       <r>   6.0624  1.0000</r>
       <r>   6.1425  1.0000</r>
       <r>   6.1799  1.0000</r>
       <r>   6.1801  1.0000</r>
       <r>   6.1907  1.0000</r>
       <r>   6.4096  1.0000</r>
       <r>   6.4859  1.0000</r>
       <r>   6.6868  0.0000</r>
       <r>   6.7297  0.0000</r>
       <r>   7.0432  0.0000</r>
       <r>   7.0493  0.0000</r>
       <r>   7.1766  0.0000</r>
       <r>   7.1766  0.0000</r>
       <r>   7.4708  0.0000</r>
       <r>   7.6869  0.0000</r>
       <r>   7.7879  0.0000</r>
       <r>   7.9841  0.0000</r>
       <r>   8.0130  0.0000</r>
       <r>   8.0130  0.0000</r>
       <r>   8.1075  0.0000</r>
       <r>   8.1075  0.0000</r>
       <r>   8.1078  0.0000</r>
       <r>   8.3252  0.0000</r>
       <r>   8.6236  0.0000</r>
       <r>   8.6236  0.0000</r>
       <r>   8.7560  0.0000</r>
      </set>
      <set comment="kpoint 19">
       <r>  -3.3126  1.0000</r>
       <r>  -2.6289  1.0000</r>
       <r>  -1.9480  1.0000</r>
       <r>  -1.2714  1.0000</r>
       <r>  -1.2701  1.0000</r>
       <r>  -1.2689  1.0000</r>
       <r>  -0.5964  1.0000</r>
       <r>  -0.5951  1.0000</r>
       <r>  -0.5938  1.0000</r>
[...]
       <r>   1.4830  1.0000</r>
       <r>   1.8075  1.0000</r>
       <r>   1.8095  1.0000</r>
       <r>   1.8111  1.0000</r>
       <r>   1.8113  1.0000</r>
       <r>   1.8114  1.0000</r>
       <r>   1.8116  1.0000</r>
       <r>   1.8131  1.0000</r>
       <r>   1.8152  1.0000</r>
       <r>   2.1386  1.0000</r>
       <r>   2.1407  1.0000</r>
       <r>   2.1422  1.0000</r>
       <r>   2.1425  1.0000</r>
       <r>   2.1426  1.0000</r>
       <r>   2.1428  1.0000</r>
       <r>   2.1443  1.0000</r>
       <r>   2.1464  1.0000</r>
       <r>   2.4680  1.0000</r>
       <r>   2.4702  1.0000</r>
       <r>   2.4706  1.0000</r>
       <r>   2.4728  1.0000</r>
       <r>   5.4176  1.0000</r>
       <r>   5.4197  1.0000</r>
       <r>   5.4213  1.0000</r>
       <r>   5.4215  1.0000</r>
       <r>   5.4216  1.0000</r>
       <r>   5.4219  1.0000</r>
       <r>   5.4234  1.0000</r>
       <r>   5.4255  1.0000</r>
       <r>   5.7422  1.0000</r>
       <r>   5.7431  1.0000</r>
       <r>   5.7438  1.0000</r>
       <r>   5.7447  1.0000</r>
       <r>   6.0665  1.0000</r>
       <r>   6.0674  1.0000</r>
       <r>   6.0681  1.0000</r>
       <r>   6.0690  1.0000</r>
       <r>   6.3825  1.0000</r>
       <r>   6.3848  1.0000</r>
       <r>   6.3863  1.0000</r>
       <r>   6.3865  1.0000</r>
       <r>   6.3866  1.0000</r>
       <r>   6.3869  1.0000</r>
       <r>   6.3884  1.0000</r>
       <r>   6.3906  1.0000</r>
       <r>   9.0826  0.0000</r>
       <r>   9.0847  0.0000</r>
       <r>   9.0852  0.0000</r>
       <r>   9.0873  0.0000</r>
       <r>   9.2727  0.0000</r>
       <r>   9.2737  0.0000</r>
       <r>   9.2744  0.0000</r>
       <r>   9.2753  0.0000</r>
       <r>   9.7166  0.0000</r>
       <r>   9.7183  0.0000</r>
       <r>   9.7188  0.0000</r>
       <r>   9.7195  0.0000</r>
      </set>
      <set comment="kpoint 190">
       <r>  -2.5721  1.0000</r>
       <r>  -2.5721  1.0000</r>
       <r>  -2.5721  1.0000</r>
       <r>  -2.5721  1.0000</r>
       <r>  -0.5442  1.0000</r>
       <r>  -0.5397  1.0000</r>
       <r>  -0.5397  1.0000</r>
       <r>  -0.5392  1.0000</r>
       <r>  -0.5391  1.0000</r>
       <r>  -0.5386  1.0000</r>
       <r>  -0.5386  1.0000</r>
       <r>  -0.5341  1.0000</r>
       <r>   1.4656  1.0000</r>
       <r>   1.4656  1.0000</r>
       <r>   1.4656  1.0000</r>
       <r>   1.4656  1.0000</r>
       <r>   1.4656  1.0000</r>
       <r>   1.4656  1.0000</r>
       <r>   1.4657  1.0000</r>
       <r>   1.4657  1.0000</r>
       <r>   3.3924  1.0000</r>
       <r>   3.3924  1.0000</r>
       <r>   3.3937  1.0000</r>
       <r>   3.3938  1.0000</r>
       <r>   3.3938  1.0000</r>
       <r>   3.3938  1.0000</r>
       <r>   3.3952  1.0000</r>
       <r>   3.3952  1.0000</r>
       <r>   3.5033  1.0000</r>
       <r>   3.5033  1.0000</r>
       <r>   3.5047  1.0000</r>
       <r>   3.5047  1.0000</r>
       <r>   3.5047  1.0000</r>
       <r>   3.5048  1.0000</r>
       <r>   3.5061  1.0000</r>
       <r>   3.5061  1.0000</r>
       <r>   4.9604  1.0000</r>
       <r>   4.9604  1.0000</r>
       <r>   4.9604  1.0000</r>
       <r>   4.9605  1.0000</r>
       <r>   5.4029  1.0000</r>
       <r>   5.4029  1.0000</r>
       <r>   5.4029  1.0000</r>
       <r>   5.4029  1.0000</r>
       <r>   5.9761  1.0000</r>
       <r>   5.9762  1.0000</r>
       <r>   5.9762  1.0000</r>
       <r>   5.9762  1.0000</r>
       <r>   7.3435  0.0000</r>
       <r>   7.3435  0.0000</r>
       <r>   7.3442  0.0000</r>
       <r>   7.3447  0.0000</r>
       <r>   7.3465  0.0000</r>
       <r>   7.3470  0.0000</r>
       <r>   7.3477  0.0000</r>
       <r>   7.3477  0.0000</r>
       <r>   8.7926  0.0000</r>
       <r>   8.7926  0.0000</r>
       <r>   8.7926  0.0000</r>
       <r>   8.7926  0.0000</r>
       <r>   8.7926  0.0000</r>
       <r>   8.7926  0.0000</r>
       <r>   8.7926  0.0000</r>
       <r>   8.7927  0.0000</r>
       <r>   9.3869  0.0000</r>
       <r>   9.3869  0.0000</r>
       <r>   9.3869  0.0000</r>
       <r>   9.3869  0.0000</r>
      </set>
      <set comment="kpoint 191">
       <r>  -2.5579  1.0000</r>
       <r>  -2.5579  1.0000</r>
       <r>  -2.5579  1.0000</r>
       <r>  -2.5579  1.0000</r>
       <r>  -0.8622  1.0000</r>
       <r>  -0.8622  1.0000</r>
       <r>  -0.8622  1.0000</r>
       <r>  -0.8622  1.0000</r>
       <r>  -0.1888  1.0000</r>
       <r>  -0.1888  1.0000</r>
       <r>  -0.1888  1.0000</r>
       <r>  -0.1888  1.0000</r>
       <r>   1.4795  1.0000</r>
       <r>   1.4795  1.0000</r>
       <r>   1.4795  1.0000</r>
       <r>   1.4795  1.0000</r>
       <r>   1.4795  1.0000</r>
       <r>   1.4795  1.0000</r>
       <r>   1.4795  1.0000</r>
       <r>   1.4795  1.0000</r>
       <r>   3.1291  1.0000</r>
       <r>   3.1291  1.0000</r>
       <r>   3.1294  1.0000</r>
       <r>   3.1294  1.0000</r>
       <r>   3.1294  1.0000</r>
       <r>   3.1294  1.0000</r>
       <r>   3.1296  1.0000</r>
       <r>   3.1296  1.0000</r>
       <r>   3.7956  1.0000</r>
       <r>   3.7956  1.0000</r>
       <r>   3.7958  1.0000</r>
       <r>   3.7958  1.0000</r>
       <r>   3.7958  1.0000</r>
       <r>   3.7958  1.0000</r>
       <r>   3.7960  1.0000</r>
       <r>   3.7960  1.0000</r>
       <r>   4.6512  1.0000</r>
       <r>   4.6512  1.0000</r>
       <r>   4.6512  1.0000</r>
       <r>   4.6512  1.0000</r>
       <r>   5.4178  1.0000</r>
       <r>   5.4178  1.0000</r>
       <r>   5.4178  1.0000</r>
       <r>   5.4178  1.0000</r>
       <r>   6.3090  1.0000</r>
       <r>   6.3090  1.0000</r>
       <r>   6.3090  1.0000</r>
       <r>   6.3090  1.0000</r>
       <r>   7.0371  0.0000</r>
       <r>   7.0371  0.0000</r>
       <r>   7.0371  0.0000</r>
       <r>   7.0371  0.0000</r>
       <r>   7.6802  0.0000</r>
       <r>   7.6802  0.0000</r>
       <r>   7.6802  0.0000</r>
       <r>   7.6802  0.0000</r>
       <r>   8.5006  0.0000</r>
       <r>   8.5006  0.0000</r>
       <r>   8.5007  0.0000</r>
       <r>   8.5007  0.0000</r>
       <r>   8.5007  0.0000</r>
       <r>   8.5007  0.0000</r>
       <r>   8.5007  0.0000</r>
       <r>   8.5007  0.0000</r>
       <r>   9.4005  0.0000</r>
       <r>   9.4005  0.0000</r>
       <r>   9.4006  0.0000</r>
       <r>   9.4006  0.0000</r>
      </set>
      <set comment="kpoint 192">
       <r>  -2.5153  1.0000</r>
       <r>  -2.5153  1.0000</r>
       <r>  -2.5153  1.0000</r>
       <r>  -2.5153  1.0000</r>
       <r>  -1.1577  1.0000</r>
       <r>  -1.1576  1.0000</r>
       <r>  -1.1576  1.0000</r>
       <r>  -1.1576  1.0000</r>
       <r>   0.1886  1.0000</r>
       <r>   0.1886  1.0000</r>
       <r>   0.1886  1.0000</r>
       <r>   0.1886  1.0000</r>
       <r>   1.5210  1.0000</r>
       <r>   1.5210  1.0000</r>
       <r>   1.5210  1.0000</r>
       <r>   1.5210  1.0000</r>
       <r>   1.5210  1.0000</r>
       <r>   1.5210  1.0000</r>
       <r>   1.5210  1.0000</r>
       <r>   1.5210  1.0000</r>
       <r>   2.8432  1.0000</r>
       <r>   2.8432  1.0000</r>
       <r>   2.8434  1.0000</r>
       <r>   2.8434  1.0000</r>
       <r>   2.8434  1.0000</r>
       <r>   2.8434  1.0000</r>
       <r>   2.8435  1.0000</r>
       <r>   2.8435  1.0000</r>
       <r>   4.1124  1.0000</r>
       <r>   4.1124  1.0000</r>
       <r>   4.1124  1.0000</r>
       <r>   4.1124  1.0000</r>
       <r>   4.1618  1.0000</r>
       <r>   4.1618  1.0000</r>
       <r>   4.1619  1.0000</r>
       <r>   4.1619  1.0000</r>
       <r>   4.1619  1.0000</r>
       <r>   4.1619  1.0000</r>
       <r>   4.1620  1.0000</r>
       <r>   4.1620  1.0000</r>
       <r>   5.4590  1.0000</r>
       <r>   5.4590  1.0000</r>
       <r>   5.4590  1.0000</r>
       <r>   5.4590  1.0000</r>
       <r>   6.7549  0.0000</r>
       <r>   6.7549  0.0000</r>
       <r>   6.7550  0.0000</r>
       <r>   6.7550  0.0000</r>
       <r>   6.9219  0.0000</r>
       <r>   6.9220  0.0000</r>
       <r>   6.9220  0.0000</r>
       <r>   6.9220  0.0000</r>
       <r>   7.9823  0.0000</r>
       <r>   7.9823  0.0000</r>
       <r>   7.9823  0.0000</r>
       <r>   7.9823  0.0000</r>
       <r>   7.9823  0.0000</r>
       <r>   7.9823  0.0000</r>
       <r>   7.9823  0.0000</r>
       <r>   7.9824  0.0000</r>
       <r>   8.0407  0.0000</r>
       <r>   8.0407  0.0000</r>
       <r>   8.0407  0.0000</r>
       <r>   8.0407  0.0000</r>
       <r>   9.4404  0.0000</r>
       <r>   9.4405  0.0000</r>
       <r>   9.4405  0.0000</r>
       <r>   9.4405  0.0000</r>
      </set>
      <set comment="kpoint 193">
       <r>  -2.4443  1.0000</r>
       <r>  -2.4443  1.0000</r>
       <r>  -2.4443  1.0000</r>
       <r>  -2.4443  1.0000</r>
       <r>  -1.4255  1.0000</r>
       <r>  -1.4255  1.0000</r>
       <r>  -1.4255  1.0000</r>
       <r>  -1.4255  1.0000</r>
       <r>   0.5929  1.0000</r>
       <r>   0.5929  1.0000</r>
       <r>   0.5929  1.0000</r>
       <r>   0.5929  1.0000</r>
       <r>   1.5902  1.0000</r>
       <r>   1.5902  1.0000</r>
       <r>   1.5902  1.0000</r>
       <r>   1.5902  1.0000</r>
       <r>   1.5902  1.0000</r>
       <r>   1.5902  1.0000</r>
       <r>   1.5902  1.0000</r>
       <r>   1.5902  1.0000</r>
       <r>   2.5828  1.0000</r>
       <r>   2.5828  1.0000</r>
       <r>   2.5828  1.0000</r>
       <r>   2.5828  1.0000</r>
       <r>   2.5828  1.0000</r>
       <r>   2.5828  1.0000</r>
       <r>   2.5829  1.0000</r>
       <r>   2.5829  1.0000</r>
       <r>   3.5509  1.0000</r>
       <r>   3.5509  1.0000</r>
       <r>   3.5509  1.0000</r>
       <r>   3.5510  1.0000</r>
       <r>   4.5557  1.0000</r>
       <r>   4.5557  1.0000</r>
       <r>   4.5557  1.0000</r>
       <r>   4.5557  1.0000</r>
       <r>   4.5557  1.0000</r>
       <r>   4.5557  1.0000</r>
       <r>   4.5558  1.0000</r>
       <r>   4.5558  1.0000</r>
       <r>   5.5268  1.0000</r>
       <r>   5.5268  1.0000</r>
       <r>   5.5269  1.0000</r>
       <r>   5.5269  1.0000</r>
       <r>   6.4992  1.0000</r>
       <r>   6.4992  1.0000</r>
       <r>   6.4993  1.0000</r>
       <r>   6.4993  1.0000</r>
       <r>   7.4380  0.0000</r>
       <r>   7.4381  0.0000</r>
       <r>   7.4381  0.0000</r>
       <r>   7.4381  0.0000</r>
       <r>   7.4381  0.0000</r>
       <r>   7.4381  0.0000</r>
       <r>   7.4381  0.0000</r>
       <r>   7.4381  0.0000</r>
       <r>   7.6077  0.0000</r>
       <r>   7.6077  0.0000</r>
       <r>   7.6077  0.0000</r>
       <r>   7.6077  0.0000</r>
       <r>   8.4267  0.0000</r>
       <r>   8.4267  0.0000</r>
       <r>   8.4267  0.0000</r>
       <r>   8.4267  0.0000</r>
       <r>   9.5068  0.0000</r>
       <r>   9.5068  0.0000</r>
       <r>   9.5068  0.0000</r>
       <r>   9.5068  0.0000</r>
      </set>
      <set comment="kpoint 194">
       <r>  -2.3450  1.0000</r>
       <r>  -2.3450  1.0000</r>
       <r>  -2.3450  1.0000</r>
       <r>  -2.3450  1.0000</r>
       <r>  -1.6655  1.0000</r>
       <r>  -1.6655  1.0000</r>
       <r>  -1.6655  1.0000</r>
       <r>  -1.6655  1.0000</r>
       <r>   1.0237  1.0000</r>
       <r>   1.0237  1.0000</r>
       <r>   1.0237  1.0000</r>
       <r>   1.0237  1.0000</r>
       <r>   1.6869  1.0000</r>
       <r>   1.6869  1.0000</r>
       <r>   1.6870  1.0000</r>
       <r>   1.6870  1.0000</r>
       <r>   1.6870  1.0000</r>
       <r>   1.6870  1.0000</r>
       <r>   1.6870  1.0000</r>
       <r>   1.6870  1.0000</r>
       <r>   2.3491  1.0000</r>
       <r>   2.3491  1.0000</r>
       <r>   2.3491  1.0000</r>
       <r>   2.3491  1.0000</r>
       <r>   2.3491  1.0000</r>
       <r>   2.3491  1.0000</r>
       <r>   2.3492  1.0000</r>
       <r>   2.3492  1.0000</r>
       <r>   3.0007  1.0000</r>
       <r>   3.0007  1.0000</r>
       <r>   3.0007  1.0000</r>
       <r>   3.0008  1.0000</r>
       <r>   4.9758  1.0000</r>
       <r>   4.9758  1.0000</r>
       <r>   4.9759  1.0000</r>
       <r>   4.9759  1.0000</r>
       <r>   4.9759  1.0000</r>
       <r>   4.9759  1.0000</r>
       <r>   4.9759  1.0000</r>
       <r>   4.9759  1.0000</r>
       <r>   5.6217  1.0000</r>
       <r>   5.6217  1.0000</r>
       <r>   5.6217  1.0000</r>
       <r>   5.6217  1.0000</r>
       <r>   6.2701  1.0000</r>
       <r>   6.2701  1.0000</r>
       <r>   6.2701  1.0000</r>
       <r>   6.2701  1.0000</r>
       <r>   6.9031  0.0000</r>
       <r>   6.9031  0.0000</r>
       <r>   6.9031  0.0000</r>
       <r>   6.9031  0.0000</r>
       <r>   6.9031  0.0000</r>
       <r>   6.9031  0.0000</r>
       <r>   6.9031  0.0000</r>
       <r>   6.9031  0.0000</r>
       <r>   8.3317  0.0000</r>
       <r>   8.3317  0.0000</r>
       <r>   8.3317  0.0000</r>
       <r>   8.3317  0.0000</r>
       <r>   8.8380  0.0000</r>
       <r>   8.8380  0.0000</r>
       <r>   8.8380  0.0000</r>
       <r>   8.8380  0.0000</r>
       <r>   9.5995  0.0000</r>
       <r>   9.5995  0.0000</r>
       <r>   9.5995  0.0000</r>
       <r>   9.5995  0.0000</r>
      </set>
      <set comment="kpoint 195">
       <r>  -2.2174  1.0000</r>
       <r>  -2.2173  1.0000</r>
       <r>  -2.2173  1.0000</r>
       <r>  -2.2173  1.0000</r>
       <r>  -1.8775  1.0000</r>
       <r>  -1.8775  1.0000</r>
       <r>  -1.8775  1.0000</r>
       <r>  -1.8775  1.0000</r>
       <r>   1.4806  1.0000</r>
       <r>   1.4807  1.0000</r>
       <r>   1.4807  1.0000</r>
       <r>   1.4807  1.0000</r>
       <r>   1.8113  1.0000</r>
       <r>   1.8113  1.0000</r>
       <r>   1.8113  1.0000</r>
       <r>   1.8113  1.0000</r>
       <r>   1.8113  1.0000</r>
       <r>   1.8113  1.0000</r>
       <r>   1.8114  1.0000</r>
       <r>   1.8114  1.0000</r>
       <r>   2.1425  1.0000</r>
       <r>   2.1425  1.0000</r>
       <r>   2.1425  1.0000</r>
       <r>   2.1425  1.0000</r>
       <r>   2.1425  1.0000</r>
       <r>   2.1425  1.0000</r>
       <r>   2.1426  1.0000</r>
       <r>   2.1426  1.0000</r>
       <r>   2.4704  1.0000</r>
       <r>   2.4704  1.0000</r>
       <r>   2.4704  1.0000</r>
       <r>   2.4705  1.0000</r>
       <r>   5.4215  1.0000</r>
       <r>   5.4215  1.0000</r>
       <r>   5.4216  1.0000</r>
       <r>   5.4216  1.0000</r>
       <r>   5.4216  1.0000</r>
       <r>   5.4216  1.0000</r>
       <r>   5.4216  1.0000</r>
       <r>   5.4216  1.0000</r>
       <r>   5.7434  1.0000</r>
       <r>   5.7434  1.0000</r>
       <r>   5.7434  1.0000</r>
       <r>   5.7434  1.0000</r>
       <r>   6.0677  1.0000</r>
       <r>   6.0678  1.0000</r>
       <r>   6.0678  1.0000</r>
       <r>   6.0678  1.0000</r>
       <r>   6.3866  1.0000</r>
       <r>   6.3866  1.0000</r>
       <r>   6.3866  1.0000</r>
       <r>   6.3866  1.0000</r>
       <r>   6.3866  1.0000</r>
       <r>   6.3866  1.0000</r>
       <r>   6.3866  1.0000</r>
       <r>   6.3866  1.0000</r>
       <r>   9.0849  0.0000</r>
       <r>   9.0849  0.0000</r>
       <r>   9.0849  0.0000</r>
       <r>   9.0849  0.0000</r>
       <r>   9.2740  0.0000</r>
       <r>   9.2740  0.0000</r>
       <r>   9.2740  0.0000</r>
       <r>   9.2740  0.0000</r>
       <r>   9.7185  0.0000</r>
       <r>   9.7185  0.0000</r>
       <r>   9.7185  0.0000</r>
       <r>   9.7185  0.0000</r>
      </set>
      <set comment="kpoint 196">
       <r>  -2.0659  1.0000</r>
       <r>  -2.0619  1.0000</r>
       <r>  -2.0619  1.0000</r>
       <r>  -2.0615  1.0000</r>
       <r>  -2.0615  1.0000</r>
       <r>  -2.0611  1.0000</r>
       <r>  -2.0611  1.0000</r>
       <r>  -2.0572  1.0000</r>
       <r>   1.9533  1.0000</r>
       <r>   1.9596  1.0000</r>
       <r>   1.9596  1.0000</r>
       <r>   1.9626  1.0000</r>
       <r>   1.9627  1.0000</r>
       <r>   1.9628  1.0000</r>
       <r>   1.9631  1.0000</r>
       <r>   1.9631  1.0000</r>
       <r>   1.9632  1.0000</r>
       <r>   1.9632  1.0000</r>
       <r>   1.9632  1.0000</r>
       <r>   1.9632  1.0000</r>
       <r>   1.9632  1.0000</r>
       <r>   1.9632  1.0000</r>
       <r>   1.9633  1.0000</r>
       <r>   1.9633  1.0000</r>
       <r>   1.9633  1.0000</r>
       <r>   1.9633  1.0000</r>
       <r>   1.9636  1.0000</r>
       <r>   1.9637  1.0000</r>
       <r>   1.9639  1.0000</r>
       <r>   1.9668  1.0000</r>
       <r>   1.9668  1.0000</r>
       <r>   1.9732  1.0000</r>
       <r>   5.8867  1.0000</r>
       <r>   5.8867  1.0000</r>
       <r>   5.8881  1.0000</r>
       <r>   5.8904  1.0000</r>
       <r>   5.8915  1.0000</r>
       <r>   5.8919  1.0000</r>
       <r>   5.8919  1.0000</r>
       <r>   5.8919  1.0000</r>
       <r>   5.8921  1.0000</r>
       <r>   5.8921  1.0000</r>
       <r>   5.8921  1.0000</r>
       <r>   5.8921  1.0000</r>
       <r>   5.8922  1.0000</r>
       <r>   5.8922  1.0000</r>
       <r>   5.8922  1.0000</r>
       <r>   5.8922  1.0000</r>
       <r>   5.8924  1.0000</r>
       <r>   5.8924  1.0000</r>
       <r>   5.8924  1.0000</r>
       <r>   5.8928  1.0000</r>
       <r>   5.8939  1.0000</r>
       <r>   5.8962  1.0000</r>
       <r>   5.8976  1.0000</r>
       <r>   5.8976  1.0000</r>
       <r>   9.7327  0.0000</r>
       <r>   9.7327  0.0000</r>
       <r>   9.7330  0.0000</r>
       <r>   9.7334  0.0000</r>
       <r>   9.7346  0.0000</r>
       <r>   9.7353  0.0000</r>
       <r>   9.7354  0.0000</r>
       <r>   9.7355  0.0000</r>
       <r>   9.8619  0.0000</r>
       <r>   9.8625  0.0000</r>
       <r>   9.8633  0.0000</r>
       <r>   9.8637  0.0000</r>
      </set>
     </set>
    </set>
   </array>
  </eigenvalues>
 </calculation>
 <structure name="finalpos" >
  <crystal>
   <varray name="basis" >
    <v>       8.47834338      0.00000000      0.00000000</v>
    <v>       0.00000000      8.47834338      0.00000000</v>
    <v>       0.00000000      0.00000000      8.47834338</v>
   </varray>
   <i name="volume">    609.44287640</i>
   <varray name="rec_basis" >
    <v>       0.11794757      0.00000000      0.00000000</v>
    <v>       0.00000000      0.11794757      0.00000000</v>
    <v>       0.00000000      0.00000000      0.11794757</v>
   </varray>
  </crystal>
  <varray name="positions" >
   <v>       0.25117948      0.25000000      0.00000000</v>
   <v>       0.75000000      0.25000000      0.00000000</v>
   <v>       0.25000000      0.75000000      0.00000000</v>
   <v>       0.75000000      0.75000000      0.00000000</v>
   <v>       0.25000000      0.25000000      0.50000000</v>
   <v>       0.75000000      0.25000000      0.50000000</v>
   <v>       0.25000000      0.75000000      0.50000000</v>
   <v>       0.75000000      0.75000000      0.50000000</v>
   <v>       0.25000000      0.00000000      0.25000000</v>
   <v>       0.75000000      0.00000000      0.25000000</v>
   <v>       0.25000000      0.50000000      0.25000000</v>
   <v>       0.75000000      0.50000000      0.25000000</v>
   <v>       0.25000000      0.00000000      0.75000000</v>
   <v>       0.75000000      0.00000000      0.75000000</v>
   <v>       0.25000000      0.50000000      0.75000000</v>
   <v>       0.75000000      0.50000000      0.75000000</v>
   <v>       0.00000000      0.25000000      0.25000000</v>
   <v>       0.50000000      0.25000000      0.25000000</v>
   <v>       0.00000000      0.75000000      0.25000000</v>
   <v>       0.50000000      0.75000000      0.25000000</v>
   <v>       0.00000000      0.25000000      0.75000000</v>
   <v>       0.50000000      0.25000000      0.75000000</v>
   <v>       0.00000000      0.75000000      0.75000000</v>
   <v>       0.50000000      0.75000000      0.75000000</v>
   <v>       0.00000000      0.00000000      0.00000000</v>
   <v>       0.50000000      0.00000000      0.00000000</v>
   <v>       0.00000000      0.50000000      0.00000000</v>
   <v>       0.50000000      0.50000000      0.00000000</v>
   <v>       0.00000000      0.00000000      0.50000000</v>
   <v>       0.50000000      0.00000000      0.50000000</v>
   <v>       0.00000000      0.50000000      0.50000000</v>
   <v>       0.50000000      0.50000000      0.50000000</v>
  </varray>
 </structure>
</modeling>
