mesh: [    48,    48,    48 ]
nqpoint: 2600   
reciprocal_lattice:
- [   0.21985712,   0.00000000,   0.00000000 ] # a*
- [   0.00000000,   0.21985712,   0.00000000 ] # b*
- [   0.00000000,   0.00000000,   0.21985712 ] # c*
natom:   4      
lattice:
- [     4.548408573523206,     0.000000000000000,     0.000000000000000 ] # a
- [     0.000000000000000,     4.548408573523206,     0.000000000000000 ] # b
- [     0.000000000000000,     0.000000000000000,     4.548408573523206 ] # c
points:
- symbol: Au # 1
  coordinates: [  0.000000000000000,  0.000000000000000,  0.000000000000000 ]
  mass: 196.966569
- symbol: Au # 2
  coordinates: [  0.500000000000000,  0.500000000000000,  0.000000000000000 ]
  mass: 196.966569
- symbol: Au # 3
  coordinates: [  0.500000000000000,  0.000000000000000,  0.500000000000000 ]
  mass: 196.966569
- symbol: Au # 4
  coordinates: [  0.000000000000000,  0.500000000000000,  0.500000000000000 ]
  mass: 196.966569
phonon:
- q-position: [    0.0104167,    0.0104167,    0.0104167 ]
  weight: 8    
  band:
  - # 1
    frequency:    -0.7825482880
  - # 2
    frequency:    -0.7825482880
  - # 3
    frequency:    -0.7825482880
  - # 4
    frequency:    -0.7825411194
  - # 5
    frequency:    -0.7825411194
  - # 6
    frequency:    -0.7825411194
  - # 7
    frequency:    -0.4241184244
  - # 8
    frequency:    -0.4241184244
  - # 9
    frequency:    -0.4241184244
  - # 10
    frequency:    -0.0189317569
  - # 11
    frequency:    -0.0189317569
  - # 12
    frequency:    -0.0184819362

- q-position: [    0.0312500,    0.0104167,    0.0104167 ]
  weight: 24   
  band:
  - # 1
    frequency:    -0.7856594408
  - # 2
    frequency:    -0.7856594408
  - # 3
    frequency:    -0.7854157859
  - # 4
    frequency:    -0.7854157859
  - # 5
    frequency:    -0.7828668723
  - # 6
    frequency:    -0.7828591504
  - # 7
    frequency:    -0.4315448417
  - # 8
    frequency:    -0.4315448417
  - # 9
    frequency:    -0.4191476967
  - # 10
    frequency:    -0.0589737759
  - # 11
    frequency:    -0.0588719037
  - # 12
    frequency:     0.0554092250

- q-position: [    0.0520833,    0.0104167,    0.0104167 ]
  weight: 24   
  band:
  - # 1
    frequency:    -0.7917984222
  - # 2
    frequency:    -0.7917984222
  - # 3
    frequency:    -0.7910714665
  - # 4
    frequency:    -0.7910714665
  - # 5
    frequency:    -0.7834874791
  - # 6
    frequency:    -0.7834786613
  - # 7
    frequency:    -0.4459182961
  - # 8
    frequency:    -0.4459182961
  - # 9
    frequency:    -0.4091066957
  - # 10
    frequency:    -0.0983886697
  - # 11
    frequency:    -0.0983188159
  - # 12
    frequency:     0.0992596241

- q-position: [    0.0729167,    0.0104167,    0.0104167 ]
  weight: 24   
  band:
  - # 1
    frequency:    -0.8007891780
  - # 2
    frequency:    -0.8007891780
  - # 3
    frequency:    -0.7993418779
  - # 4
    frequency:    -0.7993418779
  - # 5
    frequency:    -0.7843774049
  - # 6
    frequency:    -0.7843669694
  - # 7
    frequency:    -0.4663913342
  - # 8
    frequency:    -0.4663913342
  - # 9
    frequency:    -0.3937758067
  - # 10
    frequency:    -0.1374521957
  - # 11
    frequency:    -0.1373928933
  - # 12
    frequency:     0.1409548899

- q-position: [    0.0937500,    0.0104167,    0.0104167 ]
  weight: 24   
  band:
  - # 1
    frequency:    -0.8123862557
  - # 2
    frequency:    -0.8123862557
  - # 3
    frequency:    -0.8099861824
  - # 4
    frequency:    -0.8099861824
  - # 5
    frequency:    -0.7854886214
  - # 6
    frequency:    -0.7854760768
  - # 7
    frequency:    -0.4919146797
  - # 8
    frequency:    -0.4919146797
  - # 9
    frequency:    -0.3727653212
  - # 10
    frequency:    -0.1760929936
  - # 11
    frequency:    -0.1760372187
  - # 12
    frequency:     0.1814704412

- q-position: [    0.1145833,    0.0104167,    0.0104167 ]
  weight: 24   
  band:
  - # 1
    frequency:    -0.8262862684
  - # 2
    frequency:    -0.8262862684
  - # 3
    frequency:    -0.8227055933
  - # 4
    frequency:    -0.8227055933
  - # 5
    frequency:    -0.7867589488
  - # 6
    frequency:    -0.7867438425
  - # 7
    frequency:    -0.5213915599
  - # 8
    frequency:    -0.5213915599
  - # 9
    frequency:    -0.3454101046
  - # 10
    frequency:    -0.2142112475
  - # 11
    frequency:    -0.2141559041
  - # 12
    frequency:     0.2209053286

- q-position: [    0.1354167,    0.0104167,    0.0104167 ]
  weight: 24   
  band:
  - # 1
    frequency:    -0.8421438607
  - # 2
    frequency:    -0.8421438607
  - # 3
    frequency:    -0.8371585052
  - # 4
    frequency:    -0.8371585052
  - # 5
    frequency:    -0.7881135266
  - # 6
    frequency:    -0.7880954521
  - # 7
    frequency:    -0.5537829088
  - # 8
    frequency:    -0.5537829088
  - # 9
    frequency:    -0.3105378644
  - # 10
    frequency:    -0.2517028184
  - # 11
    frequency:    -0.2516463338
  - # 12
    frequency:     0.2591823239

- q-position: [    0.1562500,    0.0104167,    0.0104167 ]
  weight: 24   
  band:
  - # 1
    frequency:    -0.8595874540
  - # 2
    frequency:    -0.8595874540
  - # 3
    frequency:    -0.8529755246
  - # 4
    frequency:    -0.8529755246
  - # 5
    frequency:    -0.7894665151
  - # 6
    frequency:    -0.7894451176
  - # 7
    frequency:    -0.5881604574
  - # 8
    frequency:    -0.5881604574
  - # 9
    frequency:    -0.2884645042
  - # 10
    frequency:    -0.2884060303
  - # 11
    frequency:    -0.2658822964
  - # 12
    frequency:     0.2961708708

- q-position: [    0.1770833,    0.0104167,    0.0104167 ]
  weight: 24   
  band:
  - # 1
    frequency:    -0.8782334638
  - # 2
    frequency:    -0.8782334638
  - # 3
    frequency:    -0.8697731904
  - # 4
    frequency:    -0.8697731904
  - # 5
    frequency:    -0.7907229532
  - # 6
    frequency:    -0.7906979341
  - # 7
    frequency:    -0.6237222373
  - # 8
    frequency:    -0.6237222373
  - # 9
    frequency:    -0.3243959811
  - # 10
    frequency:    -0.3243350657
  - # 11
    frequency:    -0.2061409995
  - # 12
    frequency:     0.3317219746

- q-position: [    0.1979167,    0.0104167,    0.0104167 ]
  weight: 24   
  band:
  - # 1
    frequency:    -0.8976982390
  - # 2
    frequency:    -0.8976982390
  - # 3
    frequency:    -0.8871656445
  - # 4
    frequency:    -0.8871656445
  - # 5
    frequency:    -0.7917807030
  - # 6
    frequency:    -0.7917518223
  - # 7
    frequency:    -0.6597871207
  - # 8
    frequency:    -0.6597871207
  - # 9
    frequency:    -0.3594008628
  - # 10
    frequency:    -0.3593372930
  - # 11
    frequency:    -0.1108183913
  - # 12
    frequency:     0.3656811348

- q-position: [    0.2187500,    0.0104167,    0.0104167 ]
  weight: 24   
  band:
  - # 1
    frequency:    -0.9176074623
  - # 2
    frequency:    -0.9176074623
  - # 3
    frequency:    -0.9047739638
  - # 4
    frequency:    -0.9047739638
  - # 5
    frequency:    -0.7925324120
  - # 6
    frequency:    -0.7924994901
  - # 7
    frequency:    -0.6957804598
  - # 8
    frequency:    -0.6957804598
  - # 9
    frequency:    -0.3933874547
  - # 10
    frequency:    -0.3933211745
  - # 11
    frequency:     0.1395410954
  - # 12
    frequency:     0.3978941378

- q-position: [    0.2395833,    0.0104167,    0.0104167 ]
  weight: 24   
  band:
  - # 1
    frequency:    -0.9376031191
  - # 2
    frequency:    -0.9376031191
  - # 3
    frequency:    -0.9222332069
  - # 4
    frequency:    -0.9222332069
  - # 5
    frequency:    -0.7928674390
  - # 6
    frequency:    -0.7928303563
  - # 7
    frequency:    -0.7312177334
  - # 8
    frequency:    -0.7312177334
  - # 9
    frequency:    -0.4262693777
  - # 10
    frequency:    -0.4262004404
  - # 11
    frequency:     0.2286171250
  - # 12
    frequency:     0.4282100755

- q-position: [    0.2604167,    0.0104167,    0.0104167 ]
  weight: 24   
  band:
  - # 1
    frequency:    -0.9573483507
  - # 2
    frequency:    -0.9573483507
  - # 3
    frequency:    -0.9391974373
  - # 4
    frequency:    -0.9391974373
  - # 5
    frequency:    -0.7926736934
  - # 6
    frequency:    -0.7926323898
  - # 7
    frequency:    -0.7656894462
  - # 8
    frequency:    -0.7656894462
  - # 9
    frequency:    -0.4579661215
  - # 10
    frequency:    -0.4578946610
  - # 11
    frequency:     0.2925578487
  - # 12
    frequency:     0.4564831250

- q-position: [    0.2812500,    0.0104167,    0.0104167 ]
  weight: 24   
  band:
  - # 1
    frequency:    -0.9765306035
  - # 2
    frequency:    -0.9765306035
  - # 3
    frequency:    -0.9553430830
  - # 4
    frequency:    -0.9553430830
  - # 5
    frequency:    -0.7988484430
  - # 6
    frequency:    -0.7988484430
  - # 7
    frequency:    -0.7918393561
  - # 8
    frequency:    -0.7917938285
  - # 9
    frequency:    -0.4884035537
  - # 10
    frequency:    -0.4883297652
  - # 11
    frequency:     0.3448590344
  - # 12
    frequency:     0.4825737046

- q-position: [    0.3020833,    0.0104167,    0.0104167 ]
  weight: 24   
  band:
  - # 1
    frequency:    -0.9948634822
  - # 2
    frequency:    -0.9948634822
  - # 3
    frequency:    -0.9703710085
  - # 4
    frequency:    -0.9703710085
  - # 5
    frequency:    -0.8303997793
  - # 6
    frequency:    -0.8303997793
  - # 7
    frequency:    -0.7902544552
  - # 8
    frequency:    -0.7902047550
  - # 9
    frequency:    -0.5175143913
  - # 10
    frequency:    -0.5174385182
  - # 11
    frequency:     0.3895703164
  - # 12
    frequency:     0.5063492738

- q-position: [    0.3229167,    0.0104167,    0.0104167 ]
  weight: 24   
  band:
  - # 1
    frequency:    -1.0120876752
  - # 2
    frequency:    -1.0120876752
  - # 3
    frequency:    -0.9840076384
  - # 4
    frequency:    -0.9840076384
  - # 5
    frequency:    -0.8600928703
  - # 6
    frequency:    -0.8600928703
  - # 7
    frequency:    -0.7878122840
  - # 8
    frequency:    -0.7877585140
  - # 9
    frequency:    -0.5452386401
  - # 10
    frequency:    -0.5451609644
  - # 11
    frequency:     0.4284855715
  - # 12
    frequency:     0.5276848978

- q-position: [    0.3437500,    0.0104167,    0.0104167 ]
  weight: 24   
  band:
  - # 1
    frequency:    -1.0279712505
  - # 2
    frequency:    -1.0279712505
  - # 3
    frequency:    -0.9960054191
  - # 4
    frequency:    -0.9960054191
  - # 5
    frequency:    -0.8877155188
  - # 6
    frequency:    -0.8877155188
  - # 7
    frequency:    -0.7844106558
  - # 8
    frequency:    -0.7843529660
  - # 9
    frequency:    -0.5715240024
  - # 10
    frequency:    -0.5714448370
  - # 11
    frequency:     0.4625476152
  - # 12
    frequency:     0.5464636359

- q-position: [    0.3645833,    0.0104167,    0.0104167 ]
  weight: 24   
  band:
  - # 1
    frequency:    -1.0423095533
  - # 2
    frequency:    -1.0423095533
  - # 3
    frequency:    -1.0061428428
  - # 4
    frequency:    -1.0061428428
  - # 5
    frequency:    -0.9130894311
  - # 6
    frequency:    -0.9130894311
  - # 7
    frequency:    -0.7799529941
  - # 8
    frequency:    -0.7798915781
  - # 9
    frequency:    -0.5963262515
  - # 10
    frequency:    -0.5962459342
  - # 11
    frequency:     0.4923030084
  - # 12
    frequency:     0.5625767720

- q-position: [    0.3854167,    0.0104167,    0.0104167 ]
  weight: 24   
  band:
  - # 1
    frequency:    -1.0549248764
  - # 2
    frequency:    -1.0549248764
  - # 3
    frequency:    -1.0142242013
  - # 4
    frequency:    -1.0142242013
  - # 5
    frequency:    -0.9360668858
  - # 6
    frequency:    -0.9360668858
  - # 7
    frequency:    -0.7743492667
  - # 8
    frequency:    -0.7742843570
  - # 9
    frequency:    -0.6196095722
  - # 10
    frequency:    -0.6195284604
  - # 11
    frequency:     0.5180899841
  - # 12
    frequency:     0.5759238925

- q-position: [    0.4062500,    0.0104167,    0.0104167 ]
  weight: 24   
  band:
  - # 1
    frequency:    -1.0656660216
  - # 2
    frequency:    -1.0656660216
  - # 3
    frequency:    -1.0200791930
  - # 4
    frequency:    -1.0200791930
  - # 5
    frequency:    -0.9565282868
  - # 6
    frequency:    -0.9565282868
  - # 7
    frequency:    -0.7675167703
  - # 8
    frequency:    -0.7674486343
  - # 9
    frequency:    -0.6413468651
  - # 10
    frequency:    -0.6412653313
  - # 11
    frequency:     0.5401287617
  - # 12
    frequency:     0.5864127959

- q-position: [    0.4270833,    0.0104167,    0.0104167 ]
  weight: 24   
  band:
  - # 1
    frequency:    -1.0744078364
  - # 2
    frequency:    -1.0744078364
  - # 3
    frequency:    -1.0235624668
  - # 4
    frequency:    -1.0235624668
  - # 5
    frequency:    -0.9743803903
  - # 6
    frequency:    -0.9743803903
  - # 7
    frequency:    -0.7593807773
  - # 8
    frequency:    -0.7593097128
  - # 9
    frequency:    -0.6615200121
  - # 10
    frequency:    -0.6614384394
  - # 11
    frequency:     0.5585697285
  - # 12
    frequency:     0.5939592107

- q-position: [    0.4479167,    0.0104167,    0.0104167 ]
  weight: 24   
  band:
  - # 1
    frequency:    -1.0810507764
  - # 2
    frequency:    -1.0810507764
  - # 3
    frequency:    -1.0245531634
  - # 4
    frequency:    -1.0245531634
  - # 5
    frequency:    -0.9895550465
  - # 6
    frequency:    -0.9895550465
  - # 7
    frequency:    -0.7498750566
  - # 8
    frequency:    -0.7498013873
  - # 9
    frequency:    -0.6801200998
  - # 10
    frequency:    -0.6800388779
  - # 11
    frequency:     0.5735212012
  - # 12
    frequency:     0.5984862799

- q-position: [    0.4687500,    0.0104167,    0.0104167 ]
  weight: 24   
  band:
  - # 1
    frequency:    -1.0855205302
  - # 2
    frequency:    -1.0855205302
  - # 3
    frequency:    -1.0229544957
  - # 4
    frequency:    -1.0229544957
  - # 5
    frequency:    -1.0020083351
  - # 6
    frequency:    -1.0020083351
  - # 7
    frequency:    -0.7389422797
  - # 8
    frequency:    -0.7388663512
  - # 9
    frequency:    -0.6971475971
  - # 10
    frequency:    -0.6970671184
  - # 11
    frequency:     0.5850663940
  - # 12
    frequency:     0.5999237523

- q-position: [    0.4895833,    0.0104167,    0.0104167 ]
  weight: 24   
  band:
  - # 1
    frequency:    -1.0877677249
  - # 2
    frequency:    -1.0877677249
  - # 3
    frequency:    -1.0186934316
  - # 4
    frequency:    -1.0186934316
  - # 5
    frequency:    -1.0117199681
  - # 6
    frequency:    -1.0117199681
  - # 7
    frequency:    -0.7265343242
  - # 8
    frequency:    -0.7264564994
  - # 9
    frequency:    -0.7126124839
  - # 10
    frequency:    -0.7125331393
  - # 11
    frequency:     0.5932742790
  - # 12
    frequency:     0.5982067925

- q-position: [    0.0312500,    0.0312500,    0.0104167 ]
  weight: 24   
  band:
  - # 1
    frequency:    -0.7884981165
  - # 2
    frequency:    -0.7884342665
  - # 3
    frequency:    -0.7859344555
  - # 4
    frequency:    -0.7859344555
  - # 5
    frequency:    -0.7857410160
  - # 6
    frequency:    -0.7857410160
  - # 7
    frequency:    -0.4388318982
  - # 8
    frequency:    -0.4266082484
  - # 9
    frequency:    -0.4266082484
  - # 10
    frequency:    -0.0813018547
  - # 11
    frequency:    -0.0082740759
  - # 12
    frequency:     0.0056856917

- q-position: [    0.0520833,    0.0312500,    0.0104167 ]
  weight: 48   
  band:
  - # 1
    frequency:    -0.7944848523
  - # 2
    frequency:    -0.7939899424
  - # 3
    frequency:    -0.7919882218
  - # 4
    frequency:    -0.7914108410
  - # 5
    frequency:    -0.7864693941
  - # 6
    frequency:    -0.7863740701
  - # 7
    frequency:    -0.4529476794
  - # 8
    frequency:    -0.4410423736
  - # 9
    frequency:    -0.4166405621
  - # 10
    frequency:    -0.1133544093
  - # 11
    frequency:    -0.0784806580
  - # 12
    frequency:     0.0826186677

- q-position: [    0.0729167,    0.0312500,    0.0104167 ]
  weight: 48   
  band:
  - # 1
    frequency:    -0.8032915636
  - # 2
    frequency:    -0.8020781680
  - # 3
    frequency:    -0.8008555551
  - # 4
    frequency:    -0.7997020732
  - # 5
    frequency:    -0.7872899568
  - # 6
    frequency:    -0.7872250693
  - # 7
    frequency:    -0.4730786888
  - # 8
    frequency:    -0.4615907752
  - # 9
    frequency:    -0.4014337185
  - # 10
    frequency:    -0.1487162443
  - # 11
    frequency:    -0.1236165001
  - # 12
    frequency:     0.1301215635

- q-position: [    0.0937500,    0.0312500,    0.0104167 ]
  weight: 48   
  band:
  - # 1
    frequency:    -0.8146555054
  - # 2
    frequency:    -0.8124885686
  - # 3
    frequency:    -0.8122957649
  - # 4
    frequency:    -0.8103734777
  - # 5
    frequency:    -0.7884248862
  - # 6
    frequency:    -0.7881709990
  - # 7
    frequency:    -0.4982117604
  - # 8
    frequency:    -0.4871923893
  - # 9
    frequency:    -0.3806198888
  - # 10
    frequency:    -0.1852122541
  - # 11
    frequency:    -0.1651636230
  - # 12
    frequency:     0.1735284228

- q-position: [    0.1145833,    0.0312500,    0.0104167 ]
  weight: 48   
  band:
  - # 1
    frequency:    -0.8282806860
  - # 2
    frequency:    -0.8260111218
  - # 3
    frequency:    -0.8249304967
  - # 4
    frequency:    -0.8231257938
  - # 5
    frequency:    -0.7897269220
  - # 6
    frequency:    -0.7892370357
  - # 7
    frequency:    -0.5272805911
  - # 8
    frequency:    -0.5167416145
  - # 9
    frequency:    -0.3535751912
  - # 10
    frequency:    -0.2219651909
  - # 11
    frequency:    -0.2049761746
  - # 12
    frequency:     0.2147600309

- q-position: [    0.1354167,    0.0312500,    0.0104167 ]
  weight: 48   
  band:
  - # 1
    frequency:    -0.8438302442
  - # 2
    frequency:    -0.8416623924
  - # 3
    frequency:    -0.8390705288
  - # 4
    frequency:    -0.8376169118
  - # 5
    frequency:    -0.7911187096
  - # 6
    frequency:    -0.7903535012
  - # 7
    frequency:    -0.5592678904
  - # 8
    frequency:    -0.5491943936
  - # 9
    frequency:    -0.3192112969
  - # 10
    frequency:    -0.2585307966
  - # 11
    frequency:    -0.2435595407
  - # 12
    frequency:     0.2542877880

- q-position: [    0.1562500,    0.0312500,    0.0104167 ]
  weight: 48   
  band:
  - # 1
    frequency:    -0.8609412087
  - # 2
    frequency:    -0.8588842079
  - # 3
    frequency:    -0.8545474070
  - # 4
    frequency:    -0.8534769410
  - # 5
    frequency:    -0.7925136594
  - # 6
    frequency:    -0.7914383178
  - # 7
    frequency:    -0.5932588783
  - # 8
    frequency:    -0.5836208159
  - # 9
    frequency:    -0.2946360808
  - # 10
    frequency:    -0.2810705425
  - # 11
    frequency:    -0.2754614680
  - # 12
    frequency:     0.2922100820

- q-position: [    0.1770833,    0.0312500,    0.0104167 ]
  weight: 48   
  band:
  - # 1
    frequency:    -0.8792382295
  - # 2
    frequency:    -0.8772989894
  - # 3
    frequency:    -0.8709854167
  - # 4
    frequency:    -0.8703219580
  - # 5
    frequency:    -0.7938161443
  - # 6
    frequency:    -0.7924004368
  - # 7
    frequency:    -0.6284586954
  - # 8
    frequency:    -0.6192196356
  - # 9
    frequency:    -0.3300870986
  - # 10
    frequency:    -0.3175404353
  - # 11
    frequency:    -0.2176605861
  - # 12
    frequency:     0.3284915239

- q-position: [    0.1979167,    0.0312500,    0.0104167 ]
  weight: 48   
  band:
  - # 1
    frequency:    -0.8983452187
  - # 2
    frequency:    -0.8965286872
  - # 3
    frequency:    -0.8880058001
  - # 4
    frequency:    -0.8877656978
  - # 5
    frequency:    -0.7949233580
  - # 6
    frequency:    -0.7931417785
  - # 7
    frequency:    -0.6641890156
  - # 8
    frequency:    -0.6553118684
  - # 9
    frequency:    -0.3647317496
  - # 10
    frequency:    -0.3529472999
  - # 11
    frequency:    -0.1297555431
  - # 12
    frequency:     0.3630405332

- q-position: [    0.2187500,    0.0312500,    0.0104167 ]
  weight: 48   
  band:
  - # 1
    frequency:    -0.9178945956
  - # 2
    frequency:    -0.9162040677
  - # 3
    frequency:    -0.9054288971
  - # 4
    frequency:    -0.9052359412
  - # 5
    frequency:    -0.7957272756
  - # 6
    frequency:    -0.7935591140
  - # 7
    frequency:    -0.6998753599
  - # 8
    frequency:    -0.6913257255
  - # 9
    frequency:    -0.3984431334
  - # 10
    frequency:    -0.3872451271
  - # 11
    frequency:     0.1235312402
  - # 12
    frequency:     0.3957404955

- q-position: [    0.2395833,    0.0312500,    0.0104167 ]
  weight: 48   
  band:
  - # 1
    frequency:    -0.9375342030
  - # 2
    frequency:    -0.9359716357
  - # 3
    frequency:    -0.9229463457
  - # 4
    frequency:    -0.9223163599
  - # 5
    frequency:    -0.7961165890
  - # 6
    frequency:    -0.7935459042
  - # 7
    frequency:    -0.7350319127
  - # 8
    frequency:    -0.7267798000
  - # 9
    frequency:    -0.4311115242
  - # 10
    frequency:    -0.4203773441
  - # 11
    frequency:     0.2200245825
  - # 12
    frequency:     0.4264642421

- q-position: [    0.2604167,    0.0312500,    0.0104167 ]
  weight: 48   
  band:
  - # 1
    frequency:    -0.9569321830
  - # 2
    frequency:    -0.9554984905
  - # 3
    frequency:    -0.9399719108
  - # 4
    frequency:    -0.9389057506
  - # 5
    frequency:    -0.7959785605
  - # 6
    frequency:    -0.7929940627
  - # 7
    frequency:    -0.7692471712
  - # 8
    frequency:    -0.7612676960
  - # 9
    frequency:    -0.4626403046
  - # 10
    frequency:    -0.4522838572
  - # 11
    frequency:     0.2865299851
  - # 12
    frequency:     0.4550815617

- q-position: [    0.2812500,    0.0312500,    0.0104167 ]
  weight: 48   
  band:
  - # 1
    frequency:    -0.9757801889
  - # 2
    frequency:    -0.9744755065
  - # 3
    frequency:    -0.9561818939
  - # 4
    frequency:    -0.9546844002
  - # 5
    frequency:    -0.8021717080
  - # 6
    frequency:    -0.7952007546
  - # 7
    frequency:    -0.7944451968
  - # 8
    frequency:    -0.7917956106
  - # 9
    frequency:    -0.4929438580
  - # 10
    frequency:    -0.4829050755
  - # 11
    frequency:     0.3402993719
  - # 12
    frequency:     0.4814634507

- q-position: [    0.3020833,    0.0312500,    0.0104167 ]
  weight: 48   
  band:
  - # 1
    frequency:    -0.9937953251
  - # 2
    frequency:    -0.9926192339
  - # 3
    frequency:    -0.9712770992
  - # 4
    frequency:    -0.9693563386
  - # 5
    frequency:    -0.8335082953
  - # 6
    frequency:    -0.8260200679
  - # 7
    frequency:    -0.7936726264
  - # 8
    frequency:    -0.7898441987
  - # 9
    frequency:    -0.5219464859
  - # 10
    frequency:    -0.5121844045
  - # 11
    frequency:     0.3860110392
  - # 12
    frequency:     0.5054846865

- q-position: [    0.3229167,    0.0312500,    0.0104167 ]
  weight: 48   
  band:
  - # 1
    frequency:    -1.0107211633
  - # 2
    frequency:    -1.0096728778
  - # 3
    frequency:    -0.9849839528
  - # 4
    frequency:    -0.9826505495
  - # 5
    frequency:    -0.8630041864
  - # 6
    frequency:    -0.8557441807
  - # 7
    frequency:    -0.7912869496
  - # 8
    frequency:    -0.7870364851
  - # 9
    frequency:    -0.5495818841
  - # 10
    frequency:    -0.5400699044
  - # 11
    frequency:     0.4256698555
  - # 12
    frequency:     0.5270254590

- q-position: [    0.3437500,    0.0312500,    0.0104167 ]
  weight: 48   
  band:
  - # 1
    frequency:    -1.0263281256
  - # 2
    frequency:    -1.0254066451
  - # 3
    frequency:    -0.9970549614
  - # 4
    frequency:    -0.9943215155
  - # 5
    frequency:    -0.8904452046
  - # 6
    frequency:    -0.8834075394
  - # 7
    frequency:    -0.7879410803
  - # 8
    frequency:    -0.7832733579
  - # 9
    frequency:    -0.5757929325
  - # 10
    frequency:    -0.5665154614
  - # 11
    frequency:     0.4603125060
  - # 12
    frequency:     0.5459724233

- q-position: [    0.3645833,    0.0312500,    0.0104167 ]
  weight: 48   
  band:
  - # 1
    frequency:    -1.0404134619
  - # 2
    frequency:    -1.0396176905
  - # 3
    frequency:    -1.0072687330
  - # 4
    frequency:    -1.0041493188
  - # 5
    frequency:    -0.9156512789
  - # 6
    frequency:    -0.9088338072
  - # 7
    frequency:    -0.7835380565
  - # 8
    frequency:    -0.7784610048
  - # 9
    frequency:    -0.6005316615
  - # 10
    frequency:    -0.5914816564
  - # 11
    frequency:     0.4905345654
  - # 12
    frequency:     0.5622193574

- q-position: [    0.3854167,    0.0312500,    0.0104167 ]
  weight: 48   
  band:
  - # 1
    frequency:    -1.0528009861
  - # 2
    frequency:    -1.0521298269
  - # 3
    frequency:    -1.0154297293
  - # 4
    frequency:    -1.0119394611
  - # 5
    frequency:    -0.9384731116
  - # 6
    frequency:    -0.9318769896
  - # 7
    frequency:    -0.7779875396
  - # 8
    frequency:    -0.7725118323
  - # 9
    frequency:    -0.6237593166
  - # 10
    frequency:    -0.6149364339
  - # 11
    frequency:     0.5167026613
  - # 12
    frequency:     0.5756675175

- q-position: [    0.4062500,    0.0312500,    0.0104167 ]
  weight: 48   
  band:
  - # 1
    frequency:    -1.0633406954
  - # 2
    frequency:    -1.0627931218
  - # 3
    frequency:    -1.0213678728
  - # 4
    frequency:    -1.0175225260
  - # 5
    frequency:    -0.9587897172
  - # 6
    frequency:    -0.9524190015
  - # 7
    frequency:    -0.7712066071
  - # 8
    frequency:    -0.7653452416
  - # 9
    frequency:    -0.6454464699
  - # 10
    frequency:    -0.6368556291
  - # 11
    frequency:     0.5390546985
  - # 12
    frequency:     0.5862257281

- q-position: [    0.4270833,    0.0312500,    0.0104167 ]
  weight: 48   
  band:
  - # 1
    frequency:    -1.0719083503
  - # 2
    frequency:    -1.0714834603
  - # 3
    frequency:    -1.0249380925
  - # 4
    frequency:    -1.0207537701
  - # 5
    frequency:    -0.9765066301
  - # 6
    frequency:    -0.9703679081
  - # 7
    frequency:    -0.7631204077
  - # 8
    frequency:    -0.7568882704
  - # 9
    frequency:    -0.6655731503
  - # 10
    frequency:    -0.6572233862
  - # 11
    frequency:     0.5577526748
  - # 12
    frequency:     0.5938102134

- q-position: [    0.4479167,    0.0312500,    0.0104167 ]
  weight: 48   
  band:
  - # 1
    frequency:    -1.0784050739
  - # 2
    frequency:    -1.0781021299
  - # 3
    frequency:    -1.0260198703
  - # 4
    frequency:    -1.0215127088
  - # 5
    frequency:    -0.9915546188
  - # 6
    frequency:    -0.9856566750
  - # 7
    frequency:    -0.7536626908
  - # 8
    frequency:    -0.7470761107
  - # 9
    frequency:    -0.6841289688
  - # 10
    frequency:    -0.6760324885
  - # 11
    frequency:     0.5729128297
  - # 12
    frequency:     0.5983441448

- q-position: [    0.4687500,    0.0312500,    0.0104167 ]
  weight: 48   
  band:
  - # 1
    frequency:    -1.0827570033
  - # 2
    frequency:    -1.0825754600
  - # 3
    frequency:    -1.0245168361
  - # 4
    frequency:    -1.0197027820
  - # 5
    frequency:    -1.0038887436
  - # 6
    frequency:    -0.9982423012
  - # 7
    frequency:    -0.7427762225
  - # 8
    frequency:    -0.7358525130
  - # 9
    frequency:    -0.7011132250
  - # 10
    frequency:    -0.6932846111
  - # 11
    frequency:     0.5846239366
  - # 12
    frequency:     0.5997568540

- q-position: [    0.4895833,    0.0312500,    0.0104167 ]
  weight: 48   
  band:
  - # 1
    frequency:    -1.0849150152
  - # 2
    frequency:    -1.0848545383
  - # 3
    frequency:    -1.0203565311
  - # 4
    frequency:    -1.0152540386
  - # 5
    frequency:    -1.0134847633
  - # 6
    frequency:    -1.0081051543
  - # 7
    frequency:    -0.7304131011
  - # 8
    frequency:    -0.7231700857
  - # 9
    frequency:    -0.7165349823
  - # 10
    frequency:    -0.7089905008
  - # 11
    frequency:     0.5929589382
  - # 12
    frequency:     0.5979826262

- q-position: [    0.0520833,    0.0520833,    0.0104167 ]
  weight: 24   
  band:
  - # 1
    frequency:    -0.7998481381
  - # 2
    frequency:    -0.7996742798
  - # 3
    frequency:    -0.7923540638
  - # 4
    frequency:    -0.7923540638
  - # 5
    frequency:    -0.7920720084
  - # 6
    frequency:    -0.7920720084
  - # 7
    frequency:    -0.4665852920
  - # 8
    frequency:    -0.4312049109
  - # 9
    frequency:    -0.4312049109
  - # 10
    frequency:    -0.1384312159
  - # 11
    frequency:     0.0258117575
  - # 12
    frequency:     0.0307320745

- q-position: [    0.0729167,    0.0520833,    0.0104167 ]
  weight: 48   
  band:
  - # 1
    frequency:    -0.8082296180
  - # 2
    frequency:    -0.8074688243
  - # 3
    frequency:    -0.8009764264
  - # 4
    frequency:    -0.8004045767
  - # 5
    frequency:    -0.7930291408
  - # 6
    frequency:    -0.7928598718
  - # 7
    frequency:    -0.4860781945
  - # 8
    frequency:    -0.4519149782
  - # 9
    frequency:    -0.4162180643
  - # 10
    frequency:    -0.1689414399
  - # 11
    frequency:    -0.0902290155
  - # 12
    frequency:     0.1053145933

- q-position: [    0.0937500,    0.0520833,    0.0104167 ]
  weight: 48   
  band:
  - # 1
    frequency:    -0.8191306499
  - # 2
    frequency:    -0.8174244085
  - # 3
    frequency:    -0.8121051283
  - # 4
    frequency:    -0.8111297654
  - # 5
    frequency:    -0.7942180714
  - # 6
    frequency:    -0.7934788501
  - # 7
    frequency:    -0.5104785880
  - # 8
    frequency:    -0.4776845068
  - # 9
    frequency:    -0.3957519281
  - # 10
    frequency:    -0.2021713753
  - # 11
    frequency:    -0.1411000468
  - # 12
    frequency:     0.1565337450

- q-position: [    0.1145833,    0.0520833,    0.0104167 ]
  weight: 48   
  band:
  - # 1
    frequency:    -0.8322134479
  - # 2
    frequency:    -0.8293221351
  - # 3
    frequency:    -0.8254535749
  - # 4
    frequency:    -0.8239473707
  - # 5
    frequency:    -0.7955860436
  - # 6
    frequency:    -0.7941459001
  - # 7
    frequency:    -0.5387764048
  - # 8
    frequency:    -0.5073891649
  - # 9
    frequency:    -0.3692530130
  - # 10
    frequency:    -0.2366755806
  - # 11
    frequency:    -0.1853894749
  - # 12
    frequency:     0.2019731995

- q-position: [    0.1354167,    0.0520833,    0.0104167 ]
  weight: 48   
  band:
  - # 1
    frequency:    -0.8471551963