 running on    4 nodes
 distr:  one band on    1 nodes,    4 groups
 vasp.4.6.28 25Jul05 complex 
 POSCAR found :  1 types and   32 ions

 ----------------------------------------------------------------------------- 
|                                                                             |
|  ADVICE TO THIS USER RUNNING 'VASP/VAMP'   (HEAR YOUR MASTER'S VOICE ...):  |
|                                                                             |
|      You have a (more or less) 'large supercell' and for larger cells       |
|      it might be more efficient to use real space projection operators      |
|      So try LREAL= Auto  in the INCAR   file.                               |
|      Mind: If you want to do an extremely accurate calculations keep the    |
|      reciprocal projection scheme          (i.e. LREAL=.FALSE.)             |
|                                                                             |
 ----------------------------------------------------------------------------- 

 LDA part: xc-table for Pade appr. of Perdew
 POSCAR, INCAR and KPOINTS ok, starting setup
 WARNING: wrap around errors must be expected
 FFT: planning ...           1
 reading WAVECAR
 WARNING: random wavefunctions but no delay for mixing, default for NELMDL
 entering main loop
       N       E                     dE             d eps       ncg     rms          rms(c)
DAV:   1     0.121600400609E+03    0.12160E+03   -0.32468E+04 26656   0.109E+03
DAV:   2    -0.106143525064E+03   -0.22774E+03   -0.21259E+03 31280   0.139E+02
DAV:   3    -0.119837771433E+03   -0.13694E+02   -0.12984E+02 33224   0.274E+01
DAV:   4    -0.120141044243E+03   -0.30327E+00   -0.29976E+00 31420   0.421E+00
DAV:   5    -0.120145193346E+03   -0.41491E-02   -0.41426E-02 31672   0.571E-01    0.516E+00
DAV:   6    -0.119741466699E+03    0.40373E+00   -0.59368E-02 30900   0.793E-01    0.320E+00
DAV:   7    -0.119447771790E+03    0.29369E+00   -0.17415E-01 29560   0.127E+00    0.135E-01
DAV:   8    -0.119447792988E+03   -0.21198E-04   -0.13744E-03 31696   0.140E-01    0.443E-02
DAV:   9    -0.119447814346E+03   -0.21358E-04   -0.51567E-05 31316   0.212E-02    0.364E-03
DAV:  10    -0.119447814286E+03    0.59469E-07   -0.26036E-06 31992   0.509E-03    0.192E-03
DAV:  11    -0.119447811040E+03    0.32468E-05   -0.19395E-07 31428   0.131E-03    0.719E-04
DAV:  12    -0.119447809897E+03    0.11430E-05   -0.23927E-08 21584   0.476E-04    0.108E-04
DAV:  13    -0.119447809766E+03    0.13065E-06   -0.31717E-09 17552   0.200E-04    0.339E-05
DAV:  14    -0.119447809767E+03   -0.75261E-09   -0.53312E-10 17164   0.787E-05
   1 F= -.11944781E+03 E0= -.11944742E+03  d E =-.786158E-03
