  32  32   0   0
  0.1745885E+02  0.8236105E-09  0.8236105E-09  0.8236105E-09  0.5000000E-15
  1.000000000000000E-004
  CAR 
 unknown system                          
     11.64631176     -4.03958211  301      7.43243664      1.00000000
     -4.040  0.0000E+00  0.0000E+00
     -3.987  0.0000E+00  0.0000E+00
     -3.935  0.0000E+00  0.0000E+00
     -3.883  0.0000E+00  0.0000E+00
     -3.830  0.0000E+00  0.0000E+00
     -3.778  0.0000E+00  0.0000E+00
     -3.726  0.0000E+00  0.0000E+00
     -3.674  0.0000E+00  0.0000E+00
     -3.621  0.0000E+00  0.0000E+00
     -3.569  0.0000E+00  0.0000E+00
     -3.517  0.0000E+00  0.0000E+00
     -3.464  0.0000E+00  0.0000E+00
     -3.412  0.0000E+00  0.0000E+00
     -3.360  0.2803E-07  0.1465E-08
     -3.308  0.1306E+00  0.6831E-02
     -3.255  0.7324E+00  0.4513E-01
     -3.203  0.1121E+01  0.1037E+00
     -3.151  0.1786E+01  0.1971E+00
     -3.098  0.1777E+01  0.2900E+00
     -3.046  0.1975E+01  0.3933E+00
     -2.994  0.2386E+01  0.5181E+00
     -2.942  0.1553E+01  0.5993E+00
     -2.889  0.2902E+01  0.7510E+00
     -2.837  0.2290E+01  0.8707E+00
     -2.785  0.3348E+01  0.1046E+01
     -2.732  0.2629E+01  0.1183E+01
     -2.680  0.3786E+01  0.1381E+01
     -2.628  0.3263E+01  0.1552E+01
     -2.576  0.2093E+01  0.1661E+01
     -2.523  0.4142E+01  0.1878E+01
     -2.471  0.3843E+01  0.2079E+01
     -2.419  0.3101E+01  0.2241E+01
     -2.366  0.3719E+01  0.2435E+01
     -2.314  0.4623E+01  0.2677E+01
     -2.262  0.4360E+01  0.2905E+01
     -2.210  0.3272E+01  0.3076E+01
     -2.157  0.5059E+01  0.3341E+01
     -2.105  0.2811E+01  0.3488E+01
     -2.053  0.4892E+01  0.3743E+01
     -2.000  0.4067E+01  0.3956E+01
     -1.948  0.6951E+01  0.4319E+01
     -1.896  0.3355E+01  0.4495E+01
     -1.844  0.3599E+01  0.4683E+01
     -1.791  0.6642E+01  0.5030E+01
     -1.739  0.4116E+01  0.5246E+01
     -1.687  0.4853E+01  0.5499E+01
     -1.634  0.4417E+01  0.5730E+01
     -1.582  0.5627E+01  0.6025E+01
     -1.530  0.5452E+01  0.6310E+01
     -1.478  0.5548E+01  0.6600E+01
     -1.425  0.6276E+01  0.6928E+01
     -1.373  0.4571E+01  0.7167E+01
     -1.321  0.5581E+01  0.7459E+01
     -1.268  0.5463E+01  0.7744E+01
     -1.216  0.6127E+01  0.8065E+01
     -1.164  0.3630E+01  0.8254E+01
     -1.112  0.7692E+01  0.8657E+01
     -1.059  0.7130E+01  0.9029E+01
     -1.007  0.6489E+01  0.9369E+01
     -0.955  0.4809E+01  0.9620E+01
     -0.902  0.5201E+01  0.9892E+01
     -0.850  0.6744E+01  0.1024E+02
     -0.798  0.5128E+01  0.1051E+02
     -0.746  0.7818E+01  0.1092E+02
     -0.693  0.7431E+01  0.1131E+02
     -0.641  0.4459E+01  0.1154E+02
     -0.589  0.8463E+01  0.1199E+02
     -0.536  0.7092E+01  0.1236E+02
     -0.484  0.6606E+01  0.1270E+02
     -0.432  0.2649E+01  0.1284E+02
     -0.380  0.9229E+01  0.1332E+02
     -0.327  0.6127E+01  0.1364E+02
     -0.275  0.7677E+01  0.1404E+02
     -0.223  0.8672E+01  0.1450E+02
     -0.170  0.7909E+01  0.1491E+02
     -0.118  0.6234E+01  0.1524E+02
     -0.066  0.5161E+01  0.1551E+02
     -0.014  0.7007E+01  0.1587E+02
      0.039  0.6672E+01  0.1622E+02
      0.091  0.8306E+01  0.1666E+02
      0.143  0.8512E+01  0.1710E+02
      0.196  0.9087E+01  0.1758E+02
      0.248  0.7094E+01  0.1795E+02
      0.300  0.5410E+01  0.1823E+02
      0.352  0.9171E+01  0.1871E+02
      0.405  0.7098E+01  0.1908E+02
      0.457  0.8004E+01  0.1950E+02
      0.509  0.5429E+01  0.1978E+02
      0.562  0.9030E+01  0.2026E+02
      0.614  0.7883E+01  0.2067E+02
      0.666  0.9667E+01  0.2117E+02
      0.718  0.1069E+02  0.2173E+02
      0.771  0.5615E+01  0.2203E+02
      0.823  0.8378E+01  0.2246E+02
      0.875  0.7643E+01  0.2286E+02
      0.928  0.6725E+01  0.2322E+02
      0.980  0.6981E+01  0.2358E+02
      1.032  0.1010E+02  0.2411E+02
      1.084  0.9504E+01  0.2461E+02
      1.137  0.1016E+02  0.2514E+02
      1.189  0.8371E+01  0.2557E+02
      1.241  0.8232E+01  0.2601E+02
      1.294  0.9419E+01  0.2650E+02
      1.346  0.4613E+01  0.2674E+02
      1.398  0.1141E+02  0.2734E+02
      1.450  0.5888E+01  0.2764E+02
      1.503  0.1014E+02  0.2817E+02
      1.555  0.1119E+02  0.2876E+02
      1.607  0.1008E+02  0.2929E+02
      1.660  0.8028E+01  0.2971E+02
      1.712  0.5944E+01  0.3002E+02
      1.764  0.1402E+02  0.3075E+02
      1.816  0.8193E+01  0.3118E+02
      1.869  0.7560E+01  0.3157E+02
      1.921  0.8359E+01  0.3201E+02
      1.973  0.1176E+02  0.3262E+02
      2.026  0.5847E+01  0.3293E+02
      2.078  0.1135E+02  0.3352E+02
      2.130  0.9938E+01  0.3404E+02
      2.182  0.9637E+01  0.3455E+02
      2.235  0.1189E+02  0.3517E+02
      2.287  0.1040E+02  0.3571E+02
      2.339  0.8638E+01  0.3616E+02
      2.392  0.5520E+01  0.3645E+02
      2.444  0.1065E+02  0.3701E+02
      2.496  0.1101E+02  0.3759E+02
      2.548  0.1084E+02  0.3815E+02
      2.601  0.9017E+01  0.3862E+02
      2.653  0.1020E+02  0.3916E+02
      2.705  0.1280E+02  0.3983E+02
      2.758  0.8515E+01  0.4027E+02
      2.810  0.1090E+02  0.4084E+02
      2.862  0.8774E+01  0.4130E+02
      2.914  0.1053E+02  0.4185E+02
      2.967  0.7805E+01  0.4226E+02
      3.019  0.1462E+02  0.4302E+02
      3.071  0.8473E+01  0.4347E+02
      3.124  0.1094E+02  0.4404E+02
      3.176  0.1011E+02  0.4457E+02
      3.228  0.1118E+02  0.4515E+02
      3.281  0.9742E+01  0.4566E+02
      3.333  0.1201E+02  0.4629E+02
      3.385  0.1089E+02  0.4686E+02
      3.437  0.8529E+01  0.4730E+02
      3.490  0.1312E+02  0.4799E+02
      3.542  0.1165E+02  0.4860E+02
      3.594  0.1033E+02  0.4914E+02
      3.647  0.1102E+02  0.4971E+02
      3.699  0.9956E+01  0.5024E+02
      3.751  0.9520E+01  0.5073E+02
      3.803  0.9694E+01  0.5124E+02
      3.856  0.1506E+02  0.5203E+02
      3.908  0.1046E+02  0.5257E+02
      3.960  0.1503E+02  0.5336E+02
      4.013  0.7807E+01  0.5377E+02
      4.065  0.1318E+02  0.5446E+02
      4.117  0.9839E+01  0.5497E+02
      4.169  0.1222E+02  0.5561E+02
      4.222  0.1022E+02  0.5615E+02
      4.274  0.1191E+02  0.5677E+02
      4.326  0.1059E+02  0.5732E+02
      4.379  0.1387E+02  0.5805E+02
      4.431  0.1556E+02  0.5886E+02
      4.483  0.9481E+01  0.5936E+02
      4.535  0.1280E+02  0.6003E+02
      4.588  0.1094E+02  0.6060E+02
      4.640  0.1097E+02  0.6117E+02
      4.692  0.1221E+02  0.6181E+02
      4.745  0.1637E+02  0.6266E+02
      4.797  0.1326E+02  0.6336E+02
      4.849  0.1219E+02  0.6400E+02
      4.901  0.1075E+02  0.6456E+02
      4.954  0.1224E+02  0.6520E+02
      5.006  0.1300E+02  0.6588E+02
      5.058  0.1571E+02  0.6670E+02
      5.111  0.1103E+02  0.6728E+02
      5.163  0.9345E+01  0.6776E+02
      5.215  0.1083E+02  0.6833E+02
      5.267  0.1456E+02  0.6909E+02
      5.320  0.1471E+02  0.6986E+02
      5.372  0.8827E+01  0.7032E+02
      5.424  0.1291E+02  0.7100E+02
      5.477  0.1136E+02  0.7159E+02
      5.529  0.1092E+02  0.7216E+02
      5.581  0.1506E+02  0.7295E+02
      5.633  0.1006E+02  0.7348E+02
      5.686  0.8144E+01  0.7390E+02
      5.738  0.1065E+02  0.7446E+02
      5.790  0.1317E+02  0.7515E+02
      5.843  0.1419E+02  0.7589E+02
      5.895  0.1266E+02  0.7655E+02
      5.947  0.1053E+02  0.7710E+02
      5.999  0.1216E+02  0.7774E+02
      6.052  0.1031E+02  0.7828E+02
      6.104  0.1173E+02  0.7889E+02
      6.156  0.9963E+01  0.7941E+02
      6.209  0.1569E+02  0.8023E+02
      6.261  0.1393E+02  0.8096E+02
      6.313  0.9446E+01  0.8145E+02
      6.365  0.1544E+02  0.8226E+02
      6.418  0.1559E+02  0.8307E+02
      6.470  0.1333E+02  0.8377E+02
      6.522  0.6969E+01  0.8414E+02
      6.575  0.1451E+02  0.8489E+02
      6.627  0.1050E+02  0.8544E+02
      6.679  0.1363E+02  0.8616E+02
      6.731  0.1425E+02  0.8690E+02
      6.784  0.1455E+02  0.8766E+02
      6.836  0.9954E+01  0.8818E+02
      6.888  0.1354E+02  0.8889E+02
      6.941  0.1624E+02  0.8974E+02
      6.993  0.1252E+02  0.9039E+02
      7.045  0.9678E+01  0.9090E+02
      7.097  0.1373E+02  0.9162E+02
      7.150  0.1298E+02  0.9230E+02
      7.202  0.1381E+02  0.9302E+02
      7.254  0.1087E+02  0.9359E+02
      7.307  0.1348E+02  0.9429E+02
      7.359  0.1760E+02  0.9521E+02
      7.411  0.9183E+01  0.9569E+02
      7.463  0.1555E+02  0.9651E+02
      7.516  0.1306E+02  0.9719E+02
      7.568  0.1367E+02  0.9790E+02
      7.620  0.1467E+02  0.9867E+02
      7.673  0.1285E+02  0.9934E+02
      7.725  0.1389E+02  0.1001E+03
      7.777  0.1322E+02  0.1008E+03
      7.829  0.1128E+02  0.1013E+03
      7.882  0.1750E+02  0.1023E+03
      7.934  0.1637E+02  0.1031E+03
      7.986  0.1424E+02  0.1039E+03
      8.039  0.1556E+02  0.1047E+03
      8.091  0.1131E+02  0.1053E+03
      8.143  0.1271E+02  0.1059E+03
      8.195  0.9514E+01  0.1064E+03
      8.248  0.1431E+02  0.1072E+03
      8.300  0.1413E+02  0.1079E+03
      8.352  0.1206E+02  0.1085E+03
      8.405  0.1639E+02  0.1094E+03
      8.457  0.1800E+02  0.1103E+03
      8.509  0.1868E+02  0.1113E+03
      8.561  0.1191E+02  0.1119E+03
      8.614  0.1230E+02  0.1126E+03
      8.666  0.1477E+02  0.1134E+03
      8.718  0.1438E+02  0.1141E+03
      8.771  0.1152E+02  0.1147E+03
      8.823  0.1529E+02  0.1155E+03
      8.875  0.1034E+02  0.1161E+03
      8.927  0.1805E+02  0.1170E+03
      8.980  0.1767E+02  0.1179E+03
      9.032  0.1170E+02  0.1185E+03
      9.084  0.1401E+02  0.1193E+03
      9.137  0.1487E+02  0.1200E+03
      9.189  0.1855E+02  0.1210E+03
      9.241  0.1536E+02  0.1218E+03
      9.293  0.8866E+01  0.1223E+03
      9.346  0.1584E+02  0.1231E+03
      9.398  0.1541E+02  0.1239E+03
      9.450  0.1298E+02  0.1246E+03
      9.503  0.1669E+02  0.1255E+03
      9.555  0.1326E+02  0.1262E+03
      9.607  0.1651E+02  0.1270E+03
      9.659  0.1153E+02  0.1276E+03
      9.712  0.1262E+02  0.1283E+03
      9.764  0.9563E+01  0.1288E+03
      9.816  0.1952E+02  0.1298E+03
      9.869  0.8689E+01  0.1303E+03
      9.921  0.1638E+02  0.1311E+03
      9.973  0.9417E+01  0.1316E+03
     10.025  0.1333E+02  0.1323E+03
     10.078  0.1001E+02  0.1328E+03
     10.130  0.1405E+02  0.1336E+03
     10.182  0.7437E+01  0.1340E+03
     10.235  0.5754E+01  0.1343E+03
     10.287  0.8466E+01  0.1347E+03
     10.339  0.1104E+02  0.1353E+03
     10.391  0.4601E+01  0.1355E+03
     10.444  0.2876E+01  0.1357E+03
     10.496  0.2249E+01  0.1358E+03
     10.548  0.1243E+01  0.1358E+03
     10.601  0.8080E+00  0.1359E+03
     10.653  0.9069E+00  0.1359E+03
     10.705  0.3463E+00  0.1360E+03
     10.757  0.1852E+00  0.1360E+03
     10.810  0.5480E+00  0.1360E+03
     10.862  0.0000E+00  0.1360E+03
     10.914  0.5334E-03  0.1360E+03
     10.967  0.8801E-01  0.1360E+03
     11.019  0.0000E+00  0.1360E+03
     11.071  0.0000E+00  0.1360E+03
     11.123  0.0000E+00  0.1360E+03
     11.176  0.0000E+00  0.1360E+03
     11.228  0.0000E+00  0.1360E+03
     11.280  0.0000E+00  0.1360E+03
     11.333  0.0000E+00  0.1360E+03
     11.385  0.0000E+00  0.1360E+03
     11.437  0.0000E+00  0.1360E+03
     11.489  0.0000E+00  0.1360E+03
     11.542  0.0000E+00  0.1360E+03
     11.594  0.0000E+00  0.1360E+03
     11.646  0.0000E+00  0.1360E+03
