   32   32    1    1
  0.1745885E+02  0.8236105E-09  0.8236105E-09  0.8236105E-09  0.5000000E-15
  1.000000000000000E-004
  CAR 
 unknown system                          
   96  196   68
 
  0.0000000E+00  0.0000000E+00  0.0000000E+00  0.5787037E-03
   1       -3.3266
   2       -1.1633
   3       -1.1597
   4       -1.1597
   5       -1.1597
   6       -1.1597
   7       -1.1561
   8        0.9704
   9        0.9748
  10        0.9748
  11        0.9764
  12        0.9765
  13        0.9765
  14        0.9765
  15        0.9765
  16        0.9767
  17        0.9783
  18        0.9783
  19        0.9827
  20        3.0535
  21        3.0536
  22        3.0536
  23        3.0536
  24        3.1175
  25        3.1175
  26        3.1175
  27        3.1176
  28        4.6360
  29        4.6360
  30        4.6360
  31        5.8262
  32        5.8262
  33        5.8262
  34        6.6446
  35        6.6446
  36        6.6488
  37        6.6488
  38        6.6489
  39        6.6489
  40        6.6489
  41        6.6490
  42        6.6490
  43        6.6490
  44        6.6532
  45        6.6532
  46        7.6859
  47        7.6899
  48        7.6899
  49        7.6899
  50        7.6899
  51        7.6939
  52        8.2226
  53        8.2235
  54        8.2235
  55        8.2235
  56        8.2236
  57        8.2245
  58        8.6617
  59        8.6619
  60        8.6638
  61        8.6656
  62        8.6657
  63        8.6657
  64        8.6658
  65        8.6658
  66        8.6671
  67        8.6692
  68        8.6697
 
  0.8333333E-01  0.0000000E+00  0.0000000E+00  0.1157407E-02
   1       -3.3114
   2       -1.5036
   3       -1.1448
   4       -1.1447
   5       -1.1447
   6       -1.1447
   7       -0.7867
   8        0.6373
   9        0.6374
  10        0.6374
  11        0.6374
  12        0.9913
  13        0.9913
  14        0.9913
  15        0.9913
  16        1.3443
  17        1.3443
  18        1.3443
  19        1.3443
  20        2.7491
  21        2.7491
  22        2.7491
  23        2.7491
  24        3.4503
  25        3.4503
  26        3.4503
  27        3.4503
  28        4.3288
  29        4.6500
  30        4.6500
  31        5.8410
  32        5.8411
  33        6.1599
  34        6.3269
  35        6.3269
  36        6.3603
  37        6.3604
  38        6.3604
  39        6.3604
  40        6.6629
  41        6.6629
  42        6.6629
  43        6.6629
  44        6.9990
  45        6.9990
  46        7.5328
  47        7.5328
  48        7.8358
  49        7.8358
  50        7.8358
  51        7.8358
  52        8.3433
  53        8.3433
  54        8.3434
  55        8.3434
  56        8.3942
  57        8.3944
  58        8.3944
  59        8.3944
  60        8.4059
  61        8.4061
  62        8.4066
  63        8.4066
  64        8.4074
  65        8.4079
  66        9.0161
  67        9.0161
  68        9.0162
 
  0.1666667E+00  0.0000000E+00  0.0000000E+00  0.1157407E-02
   1       -3.2660
   2       -1.8184
   3       -1.0999
   4       -1.0999
   5       -1.0999
   6       -1.0999
   7       -0.3852
   8        0.3270
   9        0.3270
  10        0.3270
  11        0.3270
  12        1.0355
  13        1.0355
  14        1.0355
  15        1.0355
  16        1.7403
  17        1.7403
  18        1.7403
  19        1.7403
  20        2.4434
  21        2.4434
  22        2.4434
  23        2.4434
  24        3.7709
  25        3.8407
  26        3.8407
  27        3.8407
  28        3.8408
  29        4.6918
  30        4.6918
  31        5.8235
  32        5.8236
  33        5.8236
  34        5.8236
  35        5.8856
  36        5.8856
  37        6.0332
  38        6.0332
  39        6.7049
  40        6.7049
  41        6.7049
  42        6.7049
  43        6.7972
  44        7.2680
  45        7.2680
  46        7.3773
  47        7.3773
  48        7.8722
  49        7.8723
  50        7.8723
  51        7.8723
  52        7.9648
  53        7.9648
  54        7.9648
  55        7.9649
  56        8.0491
  57        8.0492
  58        8.0492
  59        8.0492
  60        8.7503
  61        8.7503
  62        8.9352
  63        8.9352
  64        8.9352
  65        8.9352
  66        9.3862
  67        9.3879
  68        9.3940
 
  0.2500000E+00  0.0000000E+00  0.0000000E+00  0.1157407E-02
   1       -3.1902
   2       -2.1038
   3       -1.0253
   4       -1.0253
   5       -1.0253
   6       -1.0253
   7        0.0427
   8        0.0457
   9        0.0457
  10        0.0457
  11        0.0478
  12        1.1091
  13        1.1091
  14        1.1091
  15        1.1091
  16        2.1616
  17        2.1635
  18        2.1635
  19        2.1642
  20        2.1658
  21        2.1665
  22        2.1665
  23        2.1684
  24        3.1809
  25        4.2594
  26        4.2594
  27        4.2594
  28        4.2594
  29        4.7616
  30        4.7616
  31        5.2488
  32        5.2488
  33        5.2488
  34        5.2488
  35        5.7675
  36        5.7675
  37        5.9596
  38        5.9596
  39        6.7748
  40        6.7748
  41        6.7749
  42        6.7749
  43        7.0055
  44        7.0055
  45        7.3067
  46        7.3067
  47        7.3067
  48        7.3067
  49        7.5196
  50        7.7811
  51        7.7811
  52        7.7830
  53        7.7830
  54        7.7857
  55        7.7857
  56        8.0618
  57        8.0618
  58        8.0618
  59        8.0618
  60        9.1145
  61        9.1146
  62        9.1146
  63        9.1146
  64        9.1433
  65        9.1433
  66        9.6142
  67        9.6142
  68        9.6143
 
  0.3333333E+00  0.0000000E+00  0.0000000E+00  0.1157407E-02
   1       -3.0842
   2       -2.3596
   3       -0.9209
   4       -0.9208
   5       -0.9208
   6       -0.9208
   7       -0.2066
   8       -0.2066
   9       -0.2066
  10       -0.2066
  11        0.5027
  12        1.2121
  13        1.2121
  14        1.2121
  15        1.2122
  16        1.9170
  17        1.9170
  18        1.9170
  19        1.9170
  20        2.5996
  21        2.6156
  22        2.6156
  23        2.6156
  24        2.6157
  25        4.6793
  26        4.6793
  27        4.6794
  28        4.6794
  29        4.7054
  30        4.7054
  31        4.7054
  32        4.7054
  33        4.8593
  34        4.8593
  35        5.5298
  36        5.5298
  37        6.0631
  38        6.0631
  39        6.7445
  40        6.7447
  41        6.7447
  42        6.7447
  43        6.7634
  44        6.7636
  45        6.8728
  46        6.8728
  47        6.8729
  48        6.8729
  49        7.5449
  50        7.5449
  51        7.5449
  52        7.5449
  53        8.1722
  54        8.1722
  55        8.1722
  56        8.1722
  57        8.2185
  58        8.2185
  59        8.2860
  60        8.8714
  61        8.8714
  62        8.8714
  63        8.8714
  64        9.5663
  65        9.5663
  66       10.2358
  67       10.2371
  68       10.2390
 
  0.4166667E+00  0.0000000E+00  0.0000000E+00  0.1157407E-02
   1       -2.9481
   2       -2.5857
   3       -0.7867
   4       -0.7867
   5       -0.7867
   6       -0.7867
   7       -0.4294
   8       -0.4294
   9       -0.4294
  10       -0.4294
  11        0.9881
  12        1.3445
  13        1.3445
  14        1.3445
  15        1.3445
  16        1.6971
  17        1.6971
  18        1.6971
  19        1.6971
  20        2.0381
  21        3.0940
  22        3.0940
  23        3.0940
  24        3.0940
  25        4.1277
  26        4.1277
  27        4.1277
  28        4.1277
  29        4.9850
  30        4.9850
  31        5.1781
  32        5.1781
  33        5.1781
  34        5.1781
  35        5.3202
  36        5.3202
  37        6.1950
  38        6.1957
  39        6.1996
  40        6.1996
  41        6.1996
  42        6.2003
  43        6.5467
  44        6.5467
  45        6.9988
  46        6.9988
  47        6.9988
  48        6.9988
  49        7.3348
  50        7.3348
  51        7.3348
  52        7.3348
  53        8.3065
  54        8.3065
  55        8.3065
  56        8.3065
  57        8.6556
  58        8.6556
  59        8.6557
  60        8.6557
  61        8.6815
  62        8.6815
  63        9.0854
  64        9.6922
  65        9.6922
  66       10.0128
  67       10.0128
  68       10.7007
 
  0.5000000E+00  0.0000000E+00  0.0000000E+00  0.5787037E-03
   1       -2.7833
   2       -2.7805
   3       -0.6267
   4       -0.6236
   5       -0.6236
   6       -0.6229
   7       -0.6227
   8       -0.6220
   9       -0.6220
  10       -0.6190
  11        1.4980
  12        1.5004
  13        1.5047
  14        1.5050
  15        1.5050
  16        1.5058
  17        1.5066
  18        1.5074
  19        1.5074
  20        1.5098
  21        3.5974
  22        3.5977
  23        3.5977
  24        3.5983
  25        3.5986
  26        3.5992
  27        3.5992
  28        3.5995
  29        5.1371
  30        5.1371
  31        5.1401
  32        5.1401
  33        5.6755
  34        5.6755
  35        5.6762
  36        5.6764
  37        5.6769
  38        5.6771
  39        5.6777
  40        5.6777
  41        6.3553
  42        6.3562
  43        6.3580
  44        6.3589
  45        7.1505
  46        7.1505
  47        7.1515
  48        7.1527
  49        7.1529
  50        7.1541
  51        7.1551
  52        7.1551
  53        8.4652
  54        8.4663
  55        8.4663
  56        8.4664
  57        8.4684
  58        8.4685
  59        8.4685
  60        8.4696
  61        9.1716
  62        9.1716
  63        9.1738
  64        9.1738
  65        9.9129
  66        9.9144
  67       10.4771
  68       10.4784
 
  0.0000000E+00  0.8333333E-01  0.0000000E+00  0.2314815E-02
   1       -3.3114
   2       -1.5036
   3       -1.1475
   4       -1.1447
   5       -1.1447
   6       -1.1419
   7       -0.7868
   8        0.6346
   9        0.6374
  10        0.6374
  11        0.6402
  12        0.9891
  13        0.9902
  14        0.9924
  15        0.9934
  16        1.3415
  17        1.3443
  18        1.3443
  19        1.3471
  20        2.7470
  21        2.7480
  22        2.7502
  23        2.7513
  24        3.4481
  25        3.4491
  26        3.4514
  27        3.4524
  28        4.3288
  29        4.6500
  30        4.6500
  31        5.8410
  32        5.8411
  33        6.1599
  34        6.3268
  35        6.3270
  36        6.3573
  37        6.3603
  38        6.3603
  39        6.3635
  40        6.6603
  41        6.6629
  42        6.6629
  43        6.6655
  44        6.9990
  45        6.9990
  46        7.5328
  47        7.5328
  48        7.8332
  49        7.8358
  50        7.8358
  51        7.8383
  52        8.3407
  53        8.3433
  54        8.3434
  55        8.3460
  56        8.3917
  57        8.3934
  58        8.3955
  59        8.3970
  60        8.4052
  61        8.4066
  62        8.4066
  63        8.4069
  64        8.4070
  65        8.4081
  66        9.0141
  67        9.0161
  68        9.0179
 
  0.8333333E-01  0.8333333E-01  0.0000000E+00  0.4629630E-02
   1       -3.2963
   2       -1.4898
   3       -1.4875
   4       -1.1298
   5       -1.1298
   6       -0.7730
   7       -0.7707
   8        0.2975
   9        0.6505
  10        0.6515
  11        0.6528
  12        0.6537
  13        1.0054
  14        1.0064
  15        1.3574
  16        1.3583
  17        1.3596
  18        1.3606
  19        1.7111
  20        2.4143
  21        2.4143
  22        3.0818
  23        3.0818
  24        3.1473
  25        3.1473
  26        3.8119
  27        3.8120
  28        4.3426
  29        4.3434
  30        4.6639
  31        5.8559
  32        6.0364
  33        6.0386
  34        6.1741
  35        6.1749
  36        6.3387
  37        6.3396
  38        6.3403
  39        6.3425
  40        6.4128
  41        6.4128
  42        6.7075
  43        6.7091
  44        7.0117
  45        7.0143
  46        7.5892
  47        7.5913
  48        7.8163
  49        7.8186
  50        8.0210
  51        8.0557
  52        8.0558
  53        8.0694
  54        8.0703
  55        8.0716
  56        8.0726
  57        8.4518
  58        8.4526
  59        8.5118
  60        8.5118
  61        8.6795
  62        8.6812
  63        8.6929
  64        8.6947
  65        8.7446
  66        8.7456
  67        8.7459
  68        8.7469
 
  0.1666667E+00  0.8333333E-01  0.0000000E+00  0.4629630E-02
   1       -3.2508
   2       -1.8034
   3       -1.4438
   4       -1.0850
   5       -1.0850
   6       -0.7272
   7       -0.3703
   8       -0.0136
   9        0.3418
  10        0.3418
  11        0.6957
  12        0.6964
  13        0.6970
  14        1.4022
  15        1.4030
  16        1.4036
  17        1.7549
  18        1.7549
  19        2.1059
  20        2.1074
  21        2.1076
  22        2.8071
  23        2.8071
  24        3.5081
  25        3.5081
  26        3.7852
  27        4.2021
  28        4.2021
  29        4.3854
  30        4.7058
  31        5.4980
  32        5.7419
  33        5.8358
  34        5.8358
  35        5.9004
  36        6.0472
  37        6.1753
  38        6.2184
  39        6.3829
  40        6.4238
  41        6.4238
  42        6.8117
  43        7.0550
  44        7.0593
  45        7.3368
  46        7.3913
  47        7.5472
  48        7.5472
  49        7.5786
  50        7.6599
  51        7.7269
  52        7.7754
  53        7.7754
  54        8.2199
  55        8.2250
  56        8.2256
  57        8.2579
  58        8.2580
  59        8.3996
  60        8.7098
  61        8.7715
  62        8.9653
  63        8.9653
  64        9.0395
  65        9.0593
  66        9.0724
  67        9.1248
  68        9.1248
 
  0.2500000E+00  0.8333333E-01  0.0000000E+00  0.4629630E-02
   1       -3.1751
   2       -2.0887
   3       -1.3689
   4       -1.0104
   5       -1.0104
   6       -0.6527
   7       -0.2956
   8        0.0582
   9        0.0605
  10        0.0619
  11        0.4156
  12        0.7702
  13        0.7702
  14        1.4765
  15        1.4765
  16        1.8265
  17        1.8292
  18        1.8304
  19        2.1788
  20        2.1788
  21        2.5279
  22        2.5307
  23        2.5318
  24        3.1953
  25        3.9271
  26        3.9271
  27        4.4562
  28        4.6199
  29        4.6200
  30        4.7756
  31        4.9207
  32        5.2625
  33        5.2625
  34        5.4739
  35        5.6040
  36        5.7815
  37        5.9744
  38        6.2914
  39        6.4529
  40        6.4933
  41        6.4933
  42        6.9803
  43        6.9803
  44        7.0090
  45        7.1250
  46        7.3228
  47        7.4607
  48        7.5076
  49        7.5078
  50        7.5276
  51        7.5339
  52        7.6608
  53        7.6609
  54        7.7415
  55        7.7978
  56        8.1333
  57        8.3659
  58        8.3659
  59        8.3948
  60        8.7880
  61        9.1600
  62        9.3145
  63        9.4152
  64        9.4152
  65        9.4362
  66        9.4671
  67        9.4797
  68        9.5320
 
  0.3333333E+00  0.8333333E-01  0.0000000E+00  0.4629630E-02
   1       -3.0691
   2       -2.3445
   3       -1.2643
   4       -0.9059
   5       -0.9059
   6       -0.5490
   7       -0.5479
   8       -0.1917
   9       -0.1917
  10        0.1640
  11        0.5175
  12        0.8735
  13        0.8735
  14        1.5788
  15        1.5791
  16        1.5800
  17        1.5803
  18        2.2800
  19        2.2825
  20        2.2826
  21        2.6142
  22        2.6302
  23        2.6302
  24        2.9793
  25        4.3493
  26        4.3738
  27        4.3738
  28        4.5553
  29        4.6935
  30        4.6936
  31        4.8733
  32        5.0370
  33        5.0651
  34        5.0651
  35        5.2339
  36        5.5438
  37        6.0778
  38        6.3934
  39        6.4171
  40        6.4171
  41        6.5508
  42        6.5918
  43        6.5918
  44        6.7754
  45        7.0843
  46        7.1001
  47        7.1002
  48        7.2220
  49        7.2237
  50        7.2683
  51        7.2683
  52        7.8469
  53        7.8952
  54        7.9523
  55        8.2325
  56        8.3001
  57        8.4780
  58        8.4780
  59        8.5198
  60        8.5441
  61        9.1735
  62        9.1735
  63        9.2245
  64        9.5816
  65        9.8596
  66        9.9145
  67        9.9607
  68        9.9678
 
  0.4166667E+00  0.8333333E-01  0.0000000E+00  0.4629630E-02
   1       -2.9330
   2       -2.5706
   3       -1.1298
   4       -0.7731
   5       -0.7718
   6       -0.7704
   7       -0.4159
   8       -0.4145
   9       -0.4133
  10       -0.0583
  11        1.0024
  12        1.0062
  13        1.0066
  14        1.3594
  15        1.3594
  16        1.7114
  17        1.7114
  18        2.0526
  19        2.0631
  20        2.0633
  21        2.7596
  22        3.1085
  23        3.1085
  24        3.4565
  25        3.7960
  26        4.1420
  27        4.1420
  28        4.4872
  29        4.6826
  30        4.8474
  31        4.8474
  32        4.9990
  33        5.0220
  34        5.3342
  35        5.5368
  36        5.5368
  37        5.8709
  38        5.8709
  39        6.2102
  40        6.5242
  41        6.5560
  42        6.5562
  43        6.5606
  44        6.6768
  45        6.7186
  46        6.7186
  47        6.8706
  48        7.0127
  49        7.0569
  50        7.0570
  51        7.3490
  52        7.6851
  53        7.9793
  54        8.3278
  55        8.4127
  56        8.6120
  57        8.6120
  58        8.6584
  59        8.6955
  60        8.9591
  61        8.9591
  62        9.0091
  63        9.0994
  64        9.4177
  65        9.7062
  66       10.0274
  67       10.3064
  68       10.3817
 
  0.5000000E+00  0.8333333E-01  0.0000000E+00  0.2314815E-02
   1       -2.7682
   2       -2.7654
   3       -0.9669
   4       -0.9642
   5       -0.6099
   6       -0.6087
   7       -0.6071
   8       -0.6060
   9       -0.2526
  10       -0.2499
  11        1.1662
  12        1.1673
  13        1.1690
  14        1.1701
  15        1.5142
  16        1.5156
  17        1.8707
  18        1.8719
  19        1.8735
  20        1.8747
  21        3.2646
  22        3.2660
  23        3.6121
  24        3.6123
  25        3.6135
  26        3.6137
  27        3.9588
  28        3.9602
  29        4.8368
  30        4.8397
  31        5.1511
  32        5.1540
  33        5.3461
  34        5.3462
  35        5.3475
  36        5.3476
  37        6.0335
  38        6.0336
  39        6.0350
  40        6.0351
  41        6.3700
  42        6.3727
  43        6.6821
  44        6.6849
  45        6.8292
  46        6.8322
  47        6.8715
  48        6.8729
  49        6.8745
  50        6.8759
  51        7.5016
  52        7.5045
  53        8.1382
  54        8.1409
  55        8.7703
  56        8.7710
  57        8.7731
  58        8.7737
  59        8.8193
  60        8.8221
  61        8.9007
  62        8.9027
  63        9.1856
  64        9.1879
  65        9.9267
  66        9.9282
  67       10.4918
  68       10.4923
 
  0.0000000E+00  0.1666667E+00  0.0000000E+00  0.2314815E-02
   1       -3.2660
   2       -1.8184
   3       -1.1027
   4       -1.0999
   5       -1.0999
   6       -1.0971
   7       -0.3852
   8        0.3242
   9        0.3270
  10        0.3270
  11        0.3298
  12        1.0333
  13        1.0344
  14        1.0366
  15        1.0376
  16        1.7374
  17        1.7403
  18        1.7403
  19        1.7431
  20        2.4412
  21        2.4423
  22        2.4445
  23        2.4455
  24        3.7709
  25        3.8386
  26        3.8396
  27        3.8419
  28        3.8429
  29        4.6918
  30        4.6918
  31        5.8206
  32        5.8236
  33        5.8236
  34        5.8266
  35        5.8855
  36        5.8856
  37        6.0332
  38        6.0332
  39        6.7023
  40        6.7049
  41        6.7049
  42        6.7075
  43        6.7972
  44        7.2680
  45        7.2680
  46        7.3773
  47        7.3773
  48        7.8698
  49        7.8712
  50        7.8734
  51        7.8747
  52        7.9625
  53        7.9648
  54        7.9648
  55        7.9671
  56        8.0465
  57        8.0491
  58        8.0492
  59        8.0518
  60        8.7503
  61        8.7503
  62        8.9331
  63        8.9352
  64        8.9352
  65        8.9374
  66        9.3847
  67        9.3857
  68        9.3880
 
  0.8333333E-01  0.1666667E+00  0.0000000E+00  0.4629630E-02
   1       -3.2508
   2       -1.8034
   3       -1.4438
   4       -1.0850
   5       -1.0850
   6       -0.7272
   7       -0.3703
   8       -0.0136
   9        0.3418
  10        0.3418
  11        0.6950
  12        0.6964
  13        0.6978
  14        1.4015
  15        1.4030
  16        1.4043
  17        1.7549
  18        1.7549
  19        2.1060
  20        2.1074
  21        2.1076
  22        2.8071
  23        2.8071
  24        3.5081
  25        3.5081
  26        3.7852
  27        4.2021
  28        4.2021
  29        4.3854
  30        4.7058
  31        5.4979
  32        5.7418
  33        5.8358
  34        5.8359
  35        5.9004
  36        6.0471
  37        6.1754
  38        6.2184
  39        6.3829
  40        6.4239
  41        6.4239
  42        6.8117
  43        7.0550
  44        7.0594
  45        7.3368
  46        7.3913
  47        7.5472
  48        7.5472
  49        7.5786
  50        7.6599
  51        7.7268
  52        7.7754
  53        7.7754
  54        8.2204
  55        8.2251
  56        8.2251
  57        8.2579
  58        8.2580
  59        8.3996
  60        8.7098
  61        8.7715
  62        8.9653
  63        8.9653
  64        9.0394
  65        9.0593
  66        9.0723
  67        9.1248
  68        9.1249
 
  0.1666667E+00  0.1666667E+00  0.0000000E+00  0.4629630E-02
   1       -3.2054
   2       -1.7595
   3       -1.7573
   4       -1.0402
   5       -1.0402
   6       -0.3274
   7       -0.3256
   8       -0.3238
   9        0.3846
  10        0.3855
  11        0.3869
  12        0.3878
  13        1.0934
  14        1.0945
  15        1.7967
  16        1.7979
  17        1.7992
  18        1.7993
  19        1.8006
  20        1.8017
  21        2.5001
  22        3.1662
  23        3.1662
  24        3.2366
  25        3.2366
  26        3.8278
  27        3.8287
  28        4.5914
  29        4.5914
  30        4.7477
  31        5.1985
  32        5.2008
  33        5.8222
  34        5.8222
  35        5.9442
  36        5.9459
  37        5.9465
  38        6.0878
  39        6.0904
  40        6.5480
  41        6.5496
  42        6.8544
  43        6.8554
  44        7.2484
  45        7.2494
  46        7.2508
  47        7.2517
  48        7.3731
  49        7.3747
  50        7.4309
  51        7.4331
  52        7.4353
  53        8.1625
  54        8.1645
  55        8.6042
  56        8.6053
  57        8.6054
  58        8.6064
  59        8.7426
  60        8.7427
  61        8.7601
  62        8.7772
  63        8.7790
  64        8.8497
  65        8.8506
  66        9.1348
  67        9.1348
  68        9.6326
 
  0.2500000E+00  0.1666667E+00  0.0000000E+00  0.4629630E-02
   1       -3.1297
   2       -2.0437
   3       -1.6834
   4       -0.9656
   5       -0.9656
   6       -0.6078
   7       -0.2515
   8        0.1027
   9        0.1049
  10        0.1063
  11        0.4601
  12        0.4601
  13        0.8140
  14        1.5185
  15        1.5211
  16        1.5224
  17        1.8722
  18        1.8722
  19        2.2227
  20        2.2227
  21        2.9205
  22        2.9229
  23        2.9243
  24        3.2387
  25        3.6238
  26        3.6238
  27        3.8999
  28        4.6202
  29        4.8174
  30        4.9291
  31        5.0084
  32        5.0084
  33        5.3024
  34        5.3024
  35        5.8234
  36        5.9626
  37        5.9626
  38        5.9847
  39        6.0186
  40        6.1590
  41        6.6818
  42        6.6818
  43        6.8901
  44        6.9269
  45        6.9809
  46        6.9809
  47        7.1666
  48        7.1706
  49        7.4457
  50        7.5033
  51        7.5766
  52        7.8398
  53        7.9362
  54        8.0425
  55        8.0425
  56        8.4880
  57        8.5119
  58        8.6687
  59        8.9582
  60        8.9582
  61        9.0129
  62        9.0129
  63        9.1263
  64        9.1848
  65        9.2126
  66        9.6934
  67        9.6934
  68        9.8444
 
  0.3333333E+00  0.1666667E+00  0.0000000E+00  0.4629630E-02
   1       -3.0237
   2       -2.2994
   3       -1.5785
   4       -0.8625
   5       -0.8612
   6       -0.8598
   7       -0.1487
   8       -0.1472
   9       -0.1460
  10        0.5605
  11        0.5632
  12        0.5636
  13        0.5648
  14        1.2713
  15        1.2713
  16        1.9729
  17        1.9747
  18        1.9750
  19        2.6577
  20        2.6731
  21        2.6736
  22        2.6763
  23        2.6769
  24        3.3710
  25        4.0002
  26        4.0471
  27        4.0707
  28        4.0707
  29        4.6866
  30        4.7358
  31        4.7359
  32        4.9152
  33        5.4214
  34        5.4526
  35        5.4526
  36        5.5857
  37        6.0594
  38        6.0594
  39        6.1173
  40        6.1175
  41        6.1219
  42        6.2570
  43        6.7399
  44        6.7399
  45        6.8050
  46        6.9286
  47        7.0275
  48        7.4469
  49        7.4830
  50        7.4830
  51        7.5475
  52        7.6014
  53        7.7065
  54        8.2433
  55        8.2725
  56        8.2758
  57        8.3424
  58        8.8788
  59        9.0832
  60        9.0832
  61        9.4348
  62        9.4474
  63        9.4475
  64        9.6022
  65        9.6196
  66        9.6281
  67        9.7728
  68        9.7785
 
  0.4166667E+00  0.1666667E+00  0.0000000E+00  0.4629630E-02
   1       -2.8876
   2       -2.5254
   3       -1.4438
   4       -1.0849
   5       -0.7271
   6       -0.7271
   7       -0.3700
   8       -0.3700
   9       -0.0141
  10        0.3414
  11        0.6965
  12        0.6965
  13        1.0465
  14        1.0504
  15        1.0510
  16        2.0963
  17        2.1065
  18        2.1067
  19        2.4536
  20        2.4572
  21        2.4573
  22        3.1521
  23        3.1521
  24        3.4923
  25        3.8467
  26        4.1291
  27        4.1850
  28        4.1850
  29        4.4724
  30        4.5449
  31        4.5450
  32        4.8740
  33        5.0408
  34        5.3761
  35        5.5703
  36        5.5703
  37        5.9233
  38        5.9233
  39        6.1866
  40        6.1866
  41        6.2537
  42        6.3828
  43        6.5271
  44        6.5271
  45        6.6003
  46        6.7187
  47        6.9404
  48        6.9404
  49        7.1564
  50        7.4971
  51        7.6784
  52        7.7274
  53        7.8970
  54        8.0267
  55        8.0636
  56        8.7375
  57        8.8969
  58        9.0315
  59        9.1412
  60        9.2196
  61        9.2196
  62        9.3870
  63        9.5655
  64        9.5656
  65        9.7483
  66        9.9085
  67        9.9085
  68       10.0746
 
  0.5000000E+00  0.1666667E+00  0.0000000E+00  0.2314815E-02
   1       -2.7229
   2       -2.7201
   3       -1.2806
   4       -1.2778
   5       -0.5653
   6       -0.5641
   7       -0.5625
   8       -0.5613
   9        0.1475
  10        0.1503
  11        0.8569
  12        0.8580
  13        0.8596
  14        0.8608
  15        1.5582
  16        1.5596
  17        2.2654
  18        2.2665
  19        2.2682
  20        2.2693
  21        2.9597
  22        2.9611
  23        3.6555
  24        3.6556
  25        3.6569
  26        3.6570
  27        4.2851
  28        4.2880
  29        4.3475
  30        4.3489
  31        5.0445
  32        5.0446
  33        5.0459
  34        5.0460
  35        5.1930
  36        5.1960
  37        6.3405
  38        6.3418
  39        6.3434
  40        6.3446
  41        6.4122
  42        6.4149
  43        6.4189
  44        6.4193
  45        6.4204
  46        6.4207
  47        6.5353
  48        6.5382
  49        7.3118
  50        7.3146
  51        7.8369
  52        7.8396
  53        7.8800
  54        7.8830
  55        8.3823
  56        8.3841
  57        9.1961
  58        9.1990
  59        9.2276
  60        9.2299
  61        9.3777
  62        9.3785
  63        9.3805
  64        9.3813
  65        9.9678
  66        9.9693
  67       10.3950
  68       10.3957
 
  0.0000000E+00  0.2500000E+00  0.0000000E+00  0.2314815E-02
   1       -3.1902
   2       -2.1038
   3       -1.0281
   4       -1.0253
   5       -1.0253
   6       -1.0225
   7        0.0427
   8        0.0449
   9        0.0456
  10        0.0457
  11        0.0485
  12        1.1070
  13        1.1080
  14        1.1102
  15        1.1113
  16        2.1611
  17        2.1639
  18        2.1639
  19        2.1642
  20        2.1649
  21        2.1665
  22        2.1670
  23        2.1685
  24        3.1809
  25        4.2572
  26        4.2583
  27        4.2605
  28        4.2616
  29        4.7616
  30        4.7616
  31        5.2458
  32        5.2488
  33        5.2488
  34        5.2517
  35        5.7675
  36        5.7675
  37        5.9596
  38        5.9596
  39        6.7722
  40        6.7749
  41        6.7749
  42        6.7775
  43        7.0055
  44        7.0055
  45        7.3043
  46        7.3056
  47        7.3078
  48        7.3090
  49        7.5196
  50        7.7800
  51        7.7830
  52        7.7830
  53        7.7836
  54        7.7838
  55        7.7862
  56        8.0596
  57        8.0618
  58        8.0618
  59        8.0639
  60        9.1125
  61        9.1146
  62        9.1146
  63        9.1167
  64        9.1432
  65        9.1432
  66        9.6129
  67        9.6142
  68        9.6165
 