 vasp.4.6.28 25Jul05 complex 
 executed on             LinuxIFC date 2016.10.21  16:39:15
 running on    4 nodes
 distr:  one band on    1 nodes,    4 groups


--------------------------------------------------------------------------------------------------------


 INCAR:
 POTCAR:   PAW_PBE Al 04Jan2001                   
 POTCAR:   PAW_PBE Al 04Jan2001                   
   VRHFIN =Al: s2p1                                                             
   LEXCH  = PE                                                                  
   EATOM  =    53.5387 eV,    3.9350 Ry                                         
                                                                                
   TITEL  = PAW_PBE Al 04Jan2001                                                
   LULTRA =        F    use ultrasoft PP ?                                      
   IUNSCR =        1    unscreen: 0-lin 1-nonlin 2-no                           
   RPACOR =    1.500    partial core radius                                     
   POMASS =   26.982; ZVAL   =    3.000    mass and valenz                      
   RCORE  =    1.900    outmost cutoff radius                                   
   RWIGS  =    2.650; RWIGS  =    1.402    wigner-seitz radius (au A)           
   ENMAX  =  240.300; ENMIN  =  180.225 eV                                      
   ICORE  =        2    local potential                                         
   LCOR   =        T    correct aug charges                                     
   LPAW   =        T    paw PP                                                  
   EAUG   =  291.052                                                            
   DEXC   =    -.041                                                            
   RMAX   =    2.974    core radius for proj-oper                               
   RAUG   =    1.300    factor for augmentation sphere                          
   RDEP   =    1.966    radius for radial grids                                 
   QCUT   =   -4.203; QGAM   =    8.405    optimization parameters              
                                                                                
   Description                                                                  
     l     E      TYP  RCUT    TYP  RCUT                                        
     0   .000     23  1.900                                                     
     0   .000     23  1.900                                                     
     1   .000     23  1.900                                                     
     1  1.000     23  1.900                                                     
     2   .000      7  1.900                                                     
  local pseudopotential read in
  partial core-charges read in
  atomic valenz-charges read in
  non local Contribution for L=           0  read in
    real space projection operators read in
  non local Contribution for L=           0  read in
    real space projection operators read in
  non local Contribution for L=           1  read in
    real space projection operators read in
  non local Contribution for L=           1  read in
    real space projection operators read in
    PAW grid and wavefunctions read in
 
   number of l-projection  operators is LMAX  =           4
   number of lm-projection operators is LMMAX =           8
 

 ----------------------------------------------------------------------------- 
|                                                                             |
|  ADVICE TO THIS USER RUNNING 'VASP/VAMP'   (HEAR YOUR MASTER'S VOICE ...):  |
|                                                                             |
|      You have a (more or less) 'large supercell' and for larger cells       |
|      it might be more efficient to use real space projection operators      |
|      So try LREAL= Auto  in the INCAR   file.                               |
|      Mind: If you want to do an extremely accurate calculations keep the    |
|      reciprocal projection scheme          (i.e. LREAL=.FALSE.)             |
|                                                                             |
 ----------------------------------------------------------------------------- 

 PAW_PBE Al 04Jan2001                   :
 energy of atom  1       EATOM=  -53.5387
 kinetic energy error for atom=    0.0003 (will be added to EATOM!!)
 
 EXHCAR: internal setup
 exchange correlation table for  LEXCH =        8
   RHO(1)=    0.500       N(1)  =     2000
   RHO(2)=  100.500       N(2)  =     4000
 
 POSCAR: Al                                      
  positions in direct lattice
  No initial velocities read in
 


--------------------------------------------------------------------------------------------------------


 ion  position               nearest neighbor table
   1  0.251  0.250  0.000-  18 2.90  22 2.90  26 2.90  28 2.90   9 2.91  11 2.91  13 2.91  15 2.91
                            25 2.92  21 2.92  27 2.92  17 2.92
   2  0.750  0.250  0.000-  10 2.91  12 2.91  14 2.91  16 2.91  17 2.91  18 2.91  21 2.91  22 2.91
                            25 2.91  26 2.91  27 2.91  28 2.91
   3  0.250  0.750  0.000-   9 2.91  11 2.91  13 2.91  15 2.91  19 2.91  20 2.91  23 2.91  24 2.91
                            25 2.91  26 2.91  27 2.91  28 2.91
   4  0.750  0.750  0.000-  10 2.91  12 2.91  14 2.91  16 2.91  19 2.91  20 2.91  23 2.91  24 2.91
                            25 2.91  26 2.91  27 2.91  28 2.91
   5  0.250  0.250  0.500-   9 2.91  11 2.91  13 2.91  15 2.91  17 2.91  18 2.91  21 2.91  22 2.91
                            29 2.91  30 2.91  31 2.91  32 2.91
   6  0.750  0.250  0.500-  10 2.91  12 2.91  14 2.91  16 2.91  17 2.91  18 2.91  21 2.91  22 2.91
                            29 2.91  30 2.91  31 2.91  32 2.91
   7  0.250  0.750  0.500-   9 2.91  11 2.91  13 2.91  15 2.91  19 2.91  20 2.91  23 2.91  24 2.91
                            29 2.91  30 2.91  31 2.91  32 2.91
   8  0.750  0.750  0.500-  10 2.91  12 2.91  14 2.91  16 2.91  19 2.91  20 2.91  23 2.91  24 2.91
                            29 2.91  30 2.91  31 2.91  32 2.91
   9  0.250  0.000  0.250-   3 2.91   5 2.91   7 2.91  17 2.91  18 2.91  19 2.91  20 2.91  25 2.91
                            26 2.91  29 2.91  30 2.91   1 2.91
  10  0.750  0.000  0.250-   2 2.91   4 2.91   6 2.91   8 2.91  17 2.91  18 2.91  19 2.91  20 2.91
                            25 2.91  26 2.91  29 2.91  30 2.91
  11  0.250  0.500  0.250-   3 2.91   5 2.91   7 2.91  17 2.91  18 2.91  19 2.91  20 2.91  27 2.91
                            28 2.91  31 2.91  32 2.91   1 2.91
  12  0.750  0.500  0.250-   2 2.91   4 2.91   6 2.91   8 2.91  17 2.91  18 2.91  19 2.91  20 2.91
                            27 2.91  28 2.91  31 2.91  32 2.91
  13  0.250  0.000  0.750-   3 2.91   5 2.91   7 2.91  21 2.91  22 2.91  23 2.91  24 2.91  25 2.91
                            26 2.91  29 2.91  30 2.91   1 2.91
  14  0.750  0.000  0.750-   2 2.91   4 2.91   6 2.91   8 2.91  21 2.91  22 2.91  23 2.91  24 2.91
                            25 2.91  26 2.91  29 2.91  30 2.91
  15  0.250  0.500  0.750-   3 2.91   5 2.91   7 2.91  21 2.91  22 2.91  23 2.91  24 2.91  27 2.91
                            28 2.91  31 2.91  32 2.91   1 2.91
  16  0.750  0.500  0.750-   2 2.91   4 2.91   6 2.91   8 2.91  21 2.91  22 2.91  23 2.91  24 2.91
                            27 2.91  28 2.91  31 2.91  32 2.91
  17  0.000  0.250  0.250-   2 2.91   5 2.91   6 2.91   9 2.91  10 2.91  11 2.91  12 2.91  25 2.91
                            27 2.91  29 2.91  31 2.91   1 2.92
  18  0.500  0.250  0.250-   1 2.90   2 2.91   5 2.91   6 2.91   9 2.91  10 2.91  11 2.91  12 2.91
                            26 2.91  28 2.91  30 2.91  32 2.91
  19  0.000  0.750  0.250-   3 2.91   4 2.91   7 2.91   8 2.91   9 2.91  10 2.91  11 2.91  12 2.91
                            25 2.91  27 2.91  29 2.91  31 2.91
  20  0.500  0.750  0.250-   3 2.91   4 2.91   7 2.91   8 2.91   9 2.91  10 2.91  11 2.91  12 2.91
                            26 2.91  28 2.91  30 2.91  32 2.91
  21  0.000  0.250  0.750-   2 2.91   5 2.91   6 2.91  13 2.91  14 2.91  15 2.91  16 2.91  25 2.91
                            27 2.91  29 2.91  31 2.91   1 2.92
  22  0.500  0.250  0.750-   1 2.90   2 2.91   5 2.91   6 2.91  13 2.91  14 2.91  15 2.91  16 2.91
                            26 2.91  28 2.91  30 2.91  32 2.91
  23  0.000  0.750  0.750-   3 2.91   4 2.91   7 2.91   8 2.91  13 2.91  14 2.91  15 2.91  16 2.91
                            25 2.91  27 2.91  29 2.91  31 2.91
  24  0.500  0.750  0.750-   3 2.91   4 2.91   7 2.91   8 2.91  13 2.91  14 2.91  15 2.91  16 2.91
                            26 2.91  28 2.91  30 2.91  32 2.91
  25  0.000  0.000  0.000-   2 2.91   3 2.91   4 2.91   9 2.91  10 2.91  13 2.91  14 2.91  17 2.91
                            19 2.91  21 2.91  23 2.91   1 2.92
  26  0.500  0.000  0.000-   1 2.90   2 2.91   3 2.91   4 2.91   9 2.91  10 2.91  13 2.91  14 2.91
                            18 2.91  20 2.91  22 2.91  24 2.91
  27  0.000  0.500  0.000-   2 2.91   3 2.91   4 2.91  11 2.91  12 2.91  15 2.91  16 2.91  17 2.91
                            19 2.91  21 2.91  23 2.91   1 2.92
  28  0.500  0.500  0.000-   1 2.90   2 2.91   3 2.91   4 2.91  11 2.91  12 2.91  15 2.91  16 2.91
                            18 2.91  20 2.91  22 2.91  24 2.91
  29  0.000  0.000  0.500-   5 2.91   6 2.91   7 2.91   8 2.91   9 2.91  10 2.91  13 2.91  14 2.91
                            17 2.91  19 2.91  21 2.91  23 2.91
  30  0.500  0.000  0.500-   5 2.91   6 2.91   7 2.91   8 2.91   9 2.91  10 2.91  13 2.91  14 2.91
                            18 2.91  20 2.91  22 2.91  24 2.91
  31  0.000  0.500  0.500-   5 2.91   6 2.91   7 2.91   8 2.91  11 2.91  12 2.91  15 2.91  16 2.91
                            17 2.91  19 2.91  21 2.91  23 2.91
  32  0.500  0.500  0.500-   5 2.91   6 2.91   7 2.91   8 2.91  11 2.91  12 2.91  15 2.91  16 2.91
                            18 2.91  20 2.91  22 2.91  24 2.91
 
  LATTYP: Found a simple cubic cell.
 ALAT       =     8.2361049941
  
  Lattice vectors:
  
 A1 = (   8.2361049941,   0.0000000000,   0.0000000000)
 A2 = (   0.0000000000,   8.2361049941,   0.0000000000)
 A3 = (   0.0000000000,   0.0000000000,   8.2361049941)
 Subroutine PRICEL returns:
 Original cell was already a primitive cell.
 

Analysis of symmetry for initial positions (statically):

 Routine SETGRP: Setting up the symmetry group for a 
 simple cubic supercell.


 Subroutine GETGRP returns: Found  8 space group operations
 (whereof  2 operations were pure point group operations)
 out of a pool of 48 trial point group operations.


The static configuration has the point symmetry C_1h.
 The point group associated with its full space group is C_4v.

Analysis of symmetry for dynamics (positions and initial velocities):

 Subroutine DYNSYM returns: Found  8 space group operations
 (whereof  2 operations were pure point group operations)
 out of a pool of  8 trial space group operations
 (whereof  2 operations were pure point group operations)
 and found also     1 'primitive' translations


The dynamic configuration has the point symmetry C_1h.
 The point group associated with its full space group is C_4v.
 
 
 KPOINTS: Automatic mesh                          

Automatic generation of k-mesh.
 
 Subroutine IBZKPT returns following result:
 ===========================================
 
 Found    196 irreducible k-points:
 
 Following reciprocal coordinates:
            Coordinates               Weight
  0.000000  0.000000  0.000000      1.000000
  0.083333  0.000000  0.000000      2.000000
  0.166667  0.000000  0.000000      2.000000
  0.250000  0.000000  0.000000      2.000000
  0.333333  0.000000  0.000000      2.000000
  0.416667  0.000000  0.000000      2.000000
  0.500000  0.000000  0.000000      1.000000
  0.000000  0.083333  0.000000      4.000000
  0.083333  0.083333  0.000000      8.000000
  0.166667  0.083333  0.000000      8.000000
  0.250000  0.083333  0.000000      8.000000
  0.333333  0.083333  0.000000      8.000000
  0.416667  0.083333  0.000000      8.000000
  0.500000  0.083333  0.000000      4.000000
  0.000000  0.166667  0.000000      4.000000
  0.083333  0.166667  0.000000      8.000000
  0.166667  0.166667  0.000000      8.000000
  0.250000  0.166667  0.000000      8.000000
  0.333333  0.166667  0.000000      8.000000
  0.416667  0.166667  0.000000      8.000000
  0.500000  0.166667  0.000000      4.000000
  0.000000  0.250000  0.000000      4.000000
  0.083333  0.250000  0.000000      8.000000
  0.166667  0.250000  0.000000      8.000000
  0.250000  0.250000  0.000000      8.000000
  0.333333  0.250000  0.000000      8.000000
  0.416667  0.250000  0.000000      8.000000
  0.500000  0.250000  0.000000      4.000000
  0.000000  0.333333  0.000000      4.000000
  0.083333  0.333333  0.000000      8.000000
  0.166667  0.333333  0.000000      8.000000
  0.250000  0.333333  0.000000      8.000000
  0.333333  0.333333  0.000000      8.000000
  0.416667  0.333333  0.000000      8.000000
  0.500000  0.333333  0.000000      4.000000
  0.000000  0.416667  0.000000      4.000000
  0.083333  0.416667  0.000000      8.000000
  0.166667  0.416667  0.000000      8.000000
  0.250000  0.416667  0.000000      8.000000
  0.333333  0.416667  0.000000      8.000000
  0.416667  0.416667  0.000000      8.000000
  0.500000  0.416667  0.000000      4.000000
  0.000000  0.500000  0.000000      2.000000
  0.083333  0.500000  0.000000      4.000000
  0.166667  0.500000  0.000000      4.000000
  0.250000  0.500000  0.000000      4.000000
  0.333333  0.500000  0.000000      4.000000
  0.416667  0.500000  0.000000      4.000000
  0.500000  0.500000  0.000000      2.000000
  0.000000  0.083333  0.083333      4.000000
  0.083333  0.083333  0.083333      8.000000
  0.166667  0.083333  0.083333      8.000000
  0.250000  0.083333  0.083333      8.000000
  0.333333  0.083333  0.083333      8.000000
  0.416667  0.083333  0.083333      8.000000
  0.500000  0.083333  0.083333      4.000000
  0.000000  0.166667  0.083333      8.000000
  0.083333  0.166667  0.083333     16.000000
  0.166667  0.166667  0.083333     16.000000
  0.250000  0.166667  0.083333     16.000000
  0.333333  0.166667  0.083333     16.000000
  0.416667  0.166667  0.083333     16.000000
  0.500000  0.166667  0.083333      8.000000
  0.000000  0.250000  0.083333      8.000000
  0.083333  0.250000  0.083333     16.000000
  0.166667  0.250000  0.083333     16.000000
  0.250000  0.250000  0.083333     16.000000
  0.333333  0.250000  0.083333     16.000000
  0.416667  0.250000  0.083333     16.000000
  0.500000  0.250000  0.083333      8.000000
  0.000000  0.333333  0.083333      8.000000
  0.083333  0.333333  0.083333     16.000000
  0.166667  0.333333  0.083333     16.000000
  0.250000  0.333333  0.083333     16.000000
  0.333333  0.333333  0.083333     16.000000
  0.416667  0.333333  0.083333     16.000000
  0.500000  0.333333  0.083333      8.000000
  0.000000  0.416667  0.083333      8.000000
  0.083333  0.416667  0.083333     16.000000
  0.166667  0.416667  0.083333     16.000000
  0.250000  0.416667  0.083333     16.000000
  0.333333  0.416667  0.083333     16.000000
  0.416667  0.416667  0.083333     16.000000
  0.500000  0.416667  0.083333      8.000000
  0.000000  0.500000  0.083333      4.000000
  0.083333  0.500000  0.083333      8.000000
  0.166667  0.500000  0.083333      8.000000
  0.250000  0.500000  0.083333      8.000000
  0.333333  0.500000  0.083333      8.000000
  0.416667  0.500000  0.083333      8.000000
  0.500000  0.500000  0.083333      4.000000
  0.000000  0.166667  0.166667      4.000000
  0.083333  0.166667  0.166667      8.000000
  0.166667  0.166667  0.166667      8.000000
  0.250000  0.166667  0.166667      8.000000
  0.333333  0.166667  0.166667      8.000000
  0.416667  0.166667  0.166667      8.000000
  0.500000  0.166667  0.166667      4.000000
  0.000000  0.250000  0.166667      8.000000
  0.083333  0.250000  0.166667     16.000000
  0.166667  0.250000  0.166667     16.000000
  0.250000  0.250000  0.166667     16.000000
  0.333333  0.250000  0.166667     16.000000
  0.416667  0.250000  0.166667     16.000000
  0.500000  0.250000  0.166667      8.000000
  0.000000  0.333333  0.166667      8.000000
  0.083333  0.333333  0.166667     16.000000
  0.166667  0.333333  0.166667     16.000000
  0.250000  0.333333  0.166667     16.000000
  0.333333  0.333333  0.166667     16.000000
  0.416667  0.333333  0.166667     16.000000
  0.500000  0.333333  0.166667      8.000000
  0.000000  0.416667  0.166667      8.000000
  0.083333  0.416667  0.166667     16.000000
  0.166667  0.416667  0.166667     16.000000
  0.250000  0.416667  0.166667     16.000000
  0.333333  0.416667  0.166667     16.000000
  0.416667  0.416667  0.166667     16.000000
  0.500000  0.416667  0.166667      8.000000
  0.000000  0.500000  0.166667      4.000000
  0.083333  0.500000  0.166667      8.000000
  0.166667  0.500000  0.166667      8.000000
  0.250000  0.500000  0.166667      8.000000
  0.333333  0.500000  0.166667      8.000000
  0.416667  0.500000  0.166667      8.000000
  0.500000  0.500000  0.166667      4.000000
  0.000000  0.250000  0.250000      4.000000
  0.083333  0.250000  0.250000      8.000000
  0.166667  0.250000  0.250000      8.000000
  0.250000  0.250000  0.250000      8.000000
  0.333333  0.250000  0.250000      8.000000
  0.416667  0.250000  0.250000      8.000000
  0.500000  0.250000  0.250000      4.000000
  0.000000  0.333333  0.250000      8.000000
  0.083333  0.333333  0.250000     16.000000
  0.166667  0.333333  0.250000     16.000000
  0.250000  0.333333  0.250000     16.000000
  0.333333  0.333333  0.250000     16.000000
  0.416667  0.333333  0.250000     16.000000
  0.500000  0.333333  0.250000      8.000000
  0.000000  0.416667  0.250000      8.000000
  0.083333  0.416667  0.250000     16.000000
  0.166667  0.416667  0.250000     16.000000
  0.250000  0.416667  0.250000     16.000000
  0.333333  0.416667  0.250000     16.000000
  0.416667  0.416667  0.250000     16.000000
  0.500000  0.416667  0.250000      8.000000
  0.000000  0.500000  0.250000      4.000000
  0.083333  0.500000  0.250000      8.000000
  0.166667  0.500000  0.250000      8.000000
  0.250000  0.500000  0.250000      8.000000
  0.333333  0.500000  0.250000      8.000000
  0.416667  0.500000  0.250000      8.000000
  0.500000  0.500000  0.250000      4.000000
  0.000000  0.333333  0.333333      4.000000
  0.083333  0.333333  0.333333      8.000000
  0.166667  0.333333  0.333333      8.000000
  0.250000  0.333333  0.333333      8.000000
  0.333333  0.333333  0.333333      8.000000
  0.416667  0.333333  0.333333      8.000000
  0.500000  0.333333  0.333333      4.000000
  0.000000  0.416667  0.333333      8.000000
  0.083333  0.416667  0.333333     16.000000
  0.166667  0.416667  0.333333     16.000000
  0.250000  0.416667  0.333333     16.000000
  0.333333  0.416667  0.333333     16.000000
  0.416667  0.416667  0.333333     16.000000
  0.500000  0.416667  0.333333      8.000000
  0.000000  0.500000  0.333333      4.000000
  0.083333  0.500000  0.333333      8.000000
  0.166667  0.500000  0.333333      8.000000
  0.250000  0.500000  0.333333      8.000000
  0.333333  0.500000  0.333333      8.000000
  0.416667  0.500000  0.333333      8.000000
  0.500000  0.500000  0.333333      4.000000
  0.000000  0.416667  0.416667      4.000000
  0.083333  0.416667  0.416667      8.000000
  0.166667  0.416667  0.416667      8.000000
  0.250000  0.416667  0.416667      8.000000
  0.333333  0.416667  0.416667      8.000000
  0.416667  0.416667  0.416667      8.000000
  0.500000  0.416667  0.416667      4.000000
  0.000000  0.500000  0.416667      4.000000
  0.083333  0.500000  0.416667      8.000000
  0.166667  0.500000  0.416667      8.000000
  0.250000  0.500000  0.416667      8.000000
  0.333333  0.500000  0.416667      8.000000
  0.416667  0.500000  0.416667      8.000000
  0.500000  0.500000  0.416667      4.000000
  0.000000  0.500000  0.500000      1.000000
  0.083333  0.500000  0.500000      2.000000
  0.166667  0.500000  0.500000      2.000000
  0.250000  0.500000  0.500000      2.000000
  0.333333  0.500000  0.500000      2.000000
  0.416667  0.500000  0.500000      2.000000
  0.500000  0.500000  0.500000      1.000000
 
 Following cartesian coordinates:
            Coordinates               Weight
  0.000000  0.000000  0.000000      1.000000
  0.010118  0.000000  0.000000      2.000000
  0.020236  0.000000  0.000000      2.000000
  0.030354  0.000000  0.000000      2.000000
  0.040472  0.000000  0.000000      2.000000
  0.050590  0.000000  0.000000      2.000000
  0.060708  0.000000  0.000000      1.000000
  0.000000  0.010118  0.000000      4.000000
  0.010118  0.010118  0.000000      8.000000
  0.020236  0.010118  0.000000      8.000000
  0.030354  0.010118  0.000000      8.000000
  0.040472  0.010118  0.000000      8.000000
  0.050590  0.010118  0.000000      8.000000
  0.060708  0.010118  0.000000      4.000000
  0.000000  0.020236  0.000000      4.000000
  0.010118  0.020236  0.000000      8.000000
  0.020236  0.020236  0.000000      8.000000
  0.030354  0.020236  0.000000      8.000000
  0.040472  0.020236  0.000000      8.000000
  0.050590  0.020236  0.000000      8.000000
  0.060708  0.020236  0.000000      4.000000
  0.000000  0.030354  0.000000      4.000000
  0.010118  0.030354  0.000000      8.000000
  0.020236  0.030354  0.000000      8.000000
  0.030354  0.030354  0.000000      8.000000
  0.040472  0.030354  0.000000      8.000000
  0.050590  0.030354  0.000000      8.000000
  0.060708  0.030354  0.000000      4.000000
  0.000000  0.040472  0.000000      4.000000
  0.010118  0.040472  0.000000      8.000000
  0.020236  0.040472  0.000000      8.000000
  0.030354  0.040472  0.000000      8.000000
  0.040472  0.040472  0.000000      8.000000
  0.050590  0.040472  0.000000      8.000000
  0.060708  0.040472  0.000000      4.000000
  0.000000  0.050590  0.000000      4.000000
  0.010118  0.050590  0.000000      8.000000
  0.020236  0.050590  0.000000      8.000000
  0.030354  0.050590  0.000000      8.000000
  0.040472  0.050590  0.000000      8.000000
  0.050590  0.050590  0.000000      8.000000
  0.060708  0.050590  0.000000      4.000000
  0.000000  0.060708  0.000000      2.000000
  0.010118  0.060708  0.000000      4.000000
  0.020236  0.060708  0.000000      4.000000
  0.030354  0.060708  0.000000      4.000000
  0.040472  0.060708  0.000000      4.000000
  0.050590  0.060708  0.000000      4.000000
  0.060708  0.060708  0.000000      2.000000
  0.000000  0.010118  0.010118      4.000000
  0.010118  0.010118  0.010118      8.000000
  0.020236  0.010118  0.010118      8.000000
  0.030354  0.010118  0.010118      8.000000
  0.040472  0.010118  0.010118      8.000000
  0.050590  0.010118  0.010118      8.000000
  0.060708  0.010118  0.010118      4.000000
  0.000000  0.020236  0.010118      8.000000
  0.010118  0.020236  0.010118     16.000000
  0.020236  0.020236  0.010118     16.000000
  0.030354  0.020236  0.010118     16.000000
  0.040472  0.020236  0.010118     16.000000
  0.050590  0.020236  0.010118     16.000000
  0.060708  0.020236  0.010118      8.000000
  0.000000  0.030354  0.010118      8.000000
  0.010118  0.030354  0.010118     16.000000
  0.020236  0.030354  0.010118     16.000000
  0.030354  0.030354  0.010118     16.000000
  0.040472  0.030354  0.010118     16.000000
  0.050590  0.030354  0.010118     16.000000
  0.060708  0.030354  0.010118      8.000000
  0.000000  0.040472  0.010118      8.000000
  0.010118  0.040472  0.010118     16.000000
  0.020236  0.040472  0.010118     16.000000
  0.030354  0.040472  0.010118     16.000000
  0.040472  0.040472  0.010118     16.000000
  0.050590  0.040472  0.010118     16.000000
  0.060708  0.040472  0.010118      8.000000
  0.000000  0.050590  0.010118      8.000000
  0.010118  0.050590  0.010118     16.000000
  0.020236  0.050590  0.010118     16.000000
  0.030354  0.050590  0.010118     16.000000
  0.040472  0.050590  0.010118     16.000000
  0.050590  0.050590  0.010118     16.000000
  0.060708  0.050590  0.010118      8.000000
  0.000000  0.060708  0.010118      4.000000
  0.010118  0.060708  0.010118      8.000000
  0.020236  0.060708  0.010118      8.000000
  0.030354  0.060708  0.010118      8.000000
  0.040472  0.060708  0.010118      8.000000
  0.050590  0.060708  0.010118      8.000000
  0.060708  0.060708  0.010118      4.000000
  0.000000  0.020236  0.020236      4.000000
  0.010118  0.020236  0.020236      8.000000
  0.020236  0.020236  0.020236      8.000000
  0.030354  0.020236  0.020236      8.000000
  0.040472  0.020236  0.020236      8.000000
  0.050590  0.020236  0.020236      8.000000
  0.060708  0.020236  0.020236      4.000000
  0.000000  0.030354  0.020236      8.000000
  0.010118  0.030354  0.020236     16.000000
  0.020236  0.030354  0.020236     16.000000
  0.030354  0.030354  0.020236     16.000000
  0.040472  0.030354  0.020236     16.000000
  0.050590  0.030354  0.020236     16.000000
  0.060708  0.030354  0.020236      8.000000
  0.000000  0.040472  0.020236      8.000000
  0.010118  0.040472  0.020236     16.000000
  0.020236  0.040472  0.020236     16.000000
  0.030354  0.040472  0.020236     16.000000
  0.040472  0.040472  0.020236     16.000000
  0.050590  0.040472  0.020236     16.000000
  0.060708  0.040472  0.020236      8.000000
  0.000000  0.050590  0.020236      8.000000
  0.010118  0.050590  0.020236     16.000000
  0.020236  0.050590  0.020236     16.000000
  0.030354  0.050590  0.020236     16.000000
  0.040472  0.050590  0.020236     16.000000
  0.050590  0.050590  0.020236     16.000000
  0.060708  0.050590  0.020236      8.000000
  0.000000  0.060708  0.020236      4.000000
  0.010118  0.060708  0.020236      8.000000
  0.020236  0.060708  0.020236      8.000000
  0.030354  0.060708  0.020236      8.000000
  0.040472  0.060708  0.020236      8.000000
  0.050590  0.060708  0.020236      8.000000
  0.060708  0.060708  0.020236      4.000000
  0.000000  0.030354  0.030354      4.000000
  0.010118  0.030354  0.030354      8.000000
  0.020236  0.030354  0.030354      8.000000
  0.030354  0.030354  0.030354      8.000000
  0.040472  0.030354  0.030354      8.000000
  0.050590  0.030354  0.030354      8.000000
  0.060708  0.030354  0.030354      4.000000
  0.000000  0.040472  0.030354      8.000000
  0.010118  0.040472  0.030354     16.000000
  0.020236  0.040472  0.030354     16.000000
  0.030354  0.040472  0.030354     16.000000
  0.040472  0.040472  0.030354     16.000000
  0.050590  0.040472  0.030354     16.000000
  0.060708  0.040472  0.030354      8.000000
  0.000000  0.050590  0.030354      8.000000
  0.010118  0.050590  0.030354     16.000000
  0.020236  0.050590  0.030354     16.000000
  0.030354  0.050590  0.030354     16.000000
  0.040472  0.050590  0.030354     16.000000
  0.050590  0.050590  0.030354     16.000000
  0.060708  0.050590  0.030354      8.000000
  0.000000  0.060708  0.030354      4.000000
  0.010118  0.060708  0.030354      8.000000
  0.020236  0.060708  0.030354      8.000000
  0.030354  0.060708  0.030354      8.000000
  0.040472  0.060708  0.030354      8.000000
  0.050590  0.060708  0.030354      8.000000
  0.060708  0.060708  0.030354      4.000000
  0.000000  0.040472  0.040472      4.000000
  0.010118  0.040472  0.040472      8.000000
  0.020236  0.040472  0.040472      8.000000
  0.030354  0.040472  0.040472      8.000000
  0.040472  0.040472  0.040472      8.000000
  0.050590  0.040472  0.040472      8.000000
  0.060708  0.040472  0.040472      4.000000
  0.000000  0.050590  0.040472      8.000000
  0.010118  0.050590  0.040472     16.000000
  0.020236  0.050590  0.040472     16.000000
  0.030354  0.050590  0.040472     16.000000
  0.040472  0.050590  0.040472     16.000000
  0.050590  0.050590  0.040472     16.000000
  0.060708  0.050590  0.040472      8.000000
  0.000000  0.060708  0.040472      4.000000
  0.010118  0.060708  0.040472      8.000000
  0.020236  0.060708  0.040472      8.000000
  0.030354  0.060708  0.040472      8.000000
  0.040472  0.060708  0.040472      8.000000
  0.050590  0.060708  0.040472      8.000000
  0.060708  0.060708  0.040472      4.000000
  0.000000  0.050590  0.050590      4.000000
  0.010118  0.050590  0.050590      8.000000
  0.020236  0.050590  0.050590      8.000000
  0.030354  0.050590  0.050590      8.000000
  0.040472  0.050590  0.050590      8.000000
  0.050590  0.050590  0.050590      8.000000
  0.060708  0.050590  0.050590      4.000000
  0.000000  0.060708  0.050590      4.000000
  0.010118  0.060708  0.050590      8.000000
  0.020236  0.060708  0.050590      8.000000
  0.030354  0.060708  0.050590      8.000000
  0.040472  0.060708  0.050590      8.000000
  0.050590  0.060708  0.050590      8.000000
  0.060708  0.060708  0.050590      4.000000
  0.000000  0.060708  0.060708      1.000000
  0.010118  0.060708  0.060708      2.000000
  0.020236  0.060708  0.060708      2.000000
  0.030354  0.060708  0.060708      2.000000
  0.040472  0.060708  0.060708      2.000000
  0.050590  0.060708  0.060708      2.000000
  0.060708  0.060708  0.060708      1.000000
 


--------------------------------------------------------------------------------------------------------




 Dimension of arrays:
   k-Points           NKPTS =    196   number of bands    NBANDS=     68
   number of dos      NEDOS =    301   number of ions     NIONS =     32
   non local maximal  LDIM  =      4   non local SUM 2l+1 LMDIM =      8
   total plane-waves  NPLWV = 216000
   max r-space proj   IRMAX =      1   max aug-charges    IRDMAX=  15245
   dimension x,y,z NGX =    60 NGY =   60 NGZ =   60
   dimension x,y,z NGXF=   120 NGYF=  120 NGZF=  120
   support grid    NGXF=   120 NGYF=  120 NGZF=  120
   ions per type =              32
 NGX,Y,Z   is equivalent  to a cutoff of  12.11, 12.11, 12.11 a.u.
 NGXF,Y,Z  is equivalent  to a cutoff of  24.22, 24.22, 24.22 a.u.


 I would recommend the setting:
   dimension x,y,z NGX =    60 NGY =   60 NGZ =   60
 SYSTEM =  unknown system                          
 POSCAR =  Al                                      

 Startparameter for this run:
   NWRITE =      2    write-flag & timer
   PREC   = accura    medium, high low
   ISTART =      0    job   : 0-new  1-cont  2-samecut
   ICHARG =      2    charge: 1-file 2-atom 10-const
   ISPIN  =      1    spin polarized calculation?
   LNONCOLLINEAR =      F non collinear calculations
   LSORBIT =      F    spin-orbit coupling
   INIWAV =      1    electr: 0-lowe 1-rand  2-diag
   LASPH  =      F    aspherical Exc in radial PAW
   METAGGA=      F    non-selfconsistent MetaGGA calc.

 Electronic Relaxation 1
   ENCUT  =  500.0 eV  36.75 Ry    6.06 a.u.  15.02 15.02 15.02*2*pi/ulx,y,z
   ENINI  =  500.0     initial cutoff
   ENAUG  =  291.1 eV  augmentation charge cutoff
   NELM   =     60;   NELMIN=  2; NELMDL=  0     # of ELM steps 
   EDIFF  = 0.1E-07   stopping-criterion for ELM
   LREAL  =      F    real-space projection
   LCOMPAT=      F    compatible to vasp.4.4
   LREAL_COMPAT= F    compatible to vasp.4.5.1-3
   GGA_COMPAT  = T    GGA compatible to vasp.4.4-vasp.4.6
   LMAXPAW     = -100 max onsite density
   LMAXMIX     =    2 max onsite mixed and CHGCAR
   VOSKOWN=      0    Vosko Wilk Nusair interpolation
   ROPT   =    0.00000
 Ionic relaxation
   EDIFFG = 0.1E-06   stopping-criterion for IOM
   NSW    =      0    number of steps for IOM
   NBLOCK =      1;   KBLOCK =      1    inner block; outer block 
   IBRION =     -1    ionic relax: 0-MD 1-quasi-New 2-CG
   NFREE  =      0    steps in history (QN), initial steepest desc. (CG)
   ISIF   =      2    stress and relaxation
   IWAVPR =     10    prediction:  0-non 1-charg 2-wave 3-comb
   ISYM   =      2    0-nonsym 1-usesym 2-fastsym
   LCORR  =      T    Harris-Foulkes like correction to forces

   POTIM  =   0.50    time-step for ionic-motion
   TEIN   =    0.0    initial temperature
   TEBEG  =    0.0;   TEEND  =   0.0 temperature during run
   SMASS  =  -3.00    Nose mass-parameter (am)
   estimated Nose-frequenzy (Omega)   =  0.10E-29 period in steps =****** mass=  -0.155E-26a.u.
   NPACO  =    256;   APACO  = 16.0  distance and # of slots for P.C.
   PSTRESS=    0.0 pullay stress

  Mass of Ions in am
   POMASS =  26.98
  Ionic Valenz
   ZVAL   =   3.00
  Atomic Wigner-Seitz radii
   RWIGS  =  -1.00
   NELECT =      96.0000    total number of electrons
   NUPDOWN=      -1.0000    fix difference up-down

 DOS related values:
   EMIN   =  10.00;   EMAX   =-10.00  energy-range for DOS
   ISMEAR =     0;   SIGMA  =   0.01  broadening in eV -4-tet -1-fermi 0-gaus

 Electronic relaxation 2 (details)
   IALGO  =     38    algorithm
   LDIAG  =      T    sub-space diagonalisation
   IMIX   =      4    mixing-type and parameters
     AMIX     =   0.40;   BMIX     =  1.00
     AMIX_MAG =   1.60;   BMIX_MAG =  1.00
     AMIN     =   0.10
     WC   =   100.;   INIMIX=   1;  MIXPRE=   1

 Intra band minimization:
   WEIMIN = 0.0000     energy-eigenvalue tresh-hold
   EBREAK =  0.38E-10  absolut break condition
   DEPER  =   0.30     relativ break condition  

   TIME   =   0.10     timestep for ELM

  volume/ion in A,a.u.               =      17.46       117.82
  Fermi-wavevector in a.u.,eV,Ry     =   0.910144 11.270547  0.828362

 Second variation
   LSECVAR=     F    do a second variation
 
 Write flags
   LWAVE  =      F    write WAVECAR
   LCHARG =      F    write CHGCAR
   LVTOT  =      F    write LOCPOT, local potential
   LELF   =      F    write electronic localiz. function (ELF)
   LORBIT =      0    0 simple, 1 ext, 2 COOP (PROOUT)


 Dipole corrections
   IDIPOL =      0    1-x, 2-y, 3-z
   LDIPOL =      F    correct potential



--------------------------------------------------------------------------------------------------------


 Static calculation
 charge density will be updated during run
 non-spin polarized calculation
 Variant of blocked Davidson
 Davidson routine will perform the subspace rotation
 performe sub-space diagonalisation
    after iterative eigenvector-optimisation
 modified Broyden-mixing scheme, WC =      100.0
 initial mixing is a Kerker type mixing with AMIX =  0.4000 and BMIX =      1.0000
 Hartree-type preconditioning will be used
 using additional bands           20
 reciprocal scheme for non local part
 use partial core corrections
 calculate Harris-corrections to forces 
   (improved forces if not selfconsistent)
 use gradient corrections 
 use of overlap-Matrix (Vanderbilt PP)
 Gauss-broadening in eV      SIGMA  =   0.01


--------------------------------------------------------------------------------------------------------


  energy-cutoff  :      500.00
  volume of cell :      558.68
      direct lattice vectors                 reciprocal lattice vectors
     8.236104994  0.000000000  0.000000000     0.121416616  0.000000000  0.000000000
     0.000000000  8.236104994  0.000000000     0.000000000  0.121416616  0.000000000
     0.000000000  0.000000000  8.236104994     0.000000000  0.000000000  0.121416616

  length of vectors
     8.236104994  8.236104994  8.236104994     0.121416616  0.121416616  0.121416616


 
 k-points in units of 2pi/SCALE and weight: Automatic mesh                          
   0.00000000  0.00000000  0.00000000       0.001
   0.01011805  0.00000000  0.00000000       0.001
   0.02023610  0.00000000  0.00000000       0.001
   0.03035415  0.00000000  0.00000000       0.001
   0.04047221  0.00000000  0.00000000       0.001
   0.05059026  0.00000000  0.00000000       0.001
   0.06070831  0.00000000  0.00000000       0.001
   0.00000000  0.01011805  0.00000000       0.002
   0.01011805  0.01011805  0.00000000       0.005
   0.02023610  0.01011805  0.00000000       0.005
   0.03035415  0.01011805  0.00000000       0.005
   0.04047221  0.01011805  0.00000000       0.005
   0.05059026  0.01011805  0.00000000       0.005
   0.06070831  0.01011805  0.00000000       0.002
   0.00000000  0.02023610  0.00000000       0.002
   0.01011805  0.02023610  0.00000000       0.005
   0.02023610  0.02023610  0.00000000       0.005
   0.03035415  0.02023610  0.00000000       0.005
   0.04047221  0.02023610  0.00000000       0.005
   0.05059026  0.02023610  0.00000000       0.005
   0.06070831  0.02023610  0.00000000       0.002
   0.00000000  0.03035415  0.00000000       0.002
   0.01011805  0.03035415  0.00000000       0.005
   0.02023610  0.03035415  0.00000000       0.005
   0.03035415  0.03035415  0.00000000       0.005
   0.04047221  0.03035415  0.00000000       0.005
   0.05059026  0.03035415  0.00000000       0.005
   0.06070831  0.03035415  0.00000000       0.002
   0.00000000  0.04047221  0.00000000       0.002
   0.01011805  0.04047221  0.00000000       0.005
   0.02023610  0.04047221  0.00000000       0.005
   0.03035415  0.04047221  0.00000000       0.005
   0.04047221  0.04047221  0.00000000       0.005
   0.05059026  0.04047221  0.00000000       0.005
   0.06070831  0.04047221  0.00000000       0.002
   0.00000000  0.05059026  0.00000000       0.002
   0.01011805  0.05059026  0.00000000       0.005
   0.02023610  0.05059026  0.00000000       0.005
   0.03035415  0.05059026  0.00000000       0.005
   0.04047221  0.05059026  0.00000000       0.005
   0.05059026  0.05059026  0.00000000       0.005
   0.06070831  0.05059026  0.00000000       0.002
   0.00000000  0.06070831  0.00000000       0.001
   0.01011805  0.06070831  0.00000000       0.002
   0.02023610  0.06070831  0.00000000       0.002
   0.03035415  0.06070831  0.00000000       0.002
   0.04047221  0.06070831  0.00000000       0.002
   0.05059026  0.06070831  0.00000000       0.002
   0.06070831  0.06070831  0.00000000       0.001
   0.00000000  0.01011805  0.01011805       0.002
   0.01011805  0.01011805  0.01011805       0.005
   0.02023610  0.01011805  0.01011805       0.005
   0.03035415  0.01011805  0.01011805       0.005
   0.04047221  0.01011805  0.01011805       0.005
   0.05059026  0.01011805  0.01011805       0.005
   0.06070831  0.01011805  0.01011805       0.002
   0.00000000  0.02023610  0.01011805       0.005
   0.01011805  0.02023610  0.01011805       0.009
   0.02023610  0.02023610  0.01011805       0.009
   0.03035415  0.02023610  0.01011805       0.009
   0.04047221  0.02023610  0.01011805       0.009
   0.05059026  0.02023610  0.01011805       0.009
   0.06070831  0.02023610  0.01011805       0.005
   0.00000000  0.03035415  0.01011805       0.005
   0.01011805  0.03035415  0.01011805       0.009
   0.02023610  0.03035415  0.01011805       0.009
   0.03035415  0.03035415  0.01011805       0.009
   0.04047221  0.03035415  0.01011805       0.009
   0.05059026  0.03035415  0.01011805       0.009
   0.06070831  0.03035415  0.01011805       0.005
   0.00000000  0.04047221  0.01011805       0.005
   0.01011805  0.04047221  0.01011805       0.009
   0.02023610  0.04047221  0.01011805       0.009
   0.03035415  0.04047221  0.01011805       0.009
   0.04047221  0.04047221  0.01011805       0.009
   0.05059026  0.04047221  0.01011805       0.009
   0.06070831  0.04047221  0.01011805       0.005
   0.00000000  0.05059026  0.01011805       0.005
   0.01011805  0.05059026  0.01011805       0.009
   0.02023610  0.05059026  0.01011805       0.009
   0.03035415  0.05059026  0.01011805       0.009
   0.04047221  0.05059026  0.01011805       0.009
   0.05059026  0.05059026  0.01011805       0.009
   0.06070831  0.05059026  0.01011805       0.005
   0.00000000  0.06070831  0.01011805       0.002
   0.01011805  0.06070831  0.01011805       0.005
   0.02023610  0.06070831  0.01011805       0.005
   0.03035415  0.06070831  0.01011805       0.005
   0.04047221  0.06070831  0.01011805       0.005
   0.05059026  0.06070831  0.01011805       0.005
   0.06070831  0.06070831  0.01011805       0.002
   0.00000000  0.02023610  0.02023610       0.002
   0.01011805  0.02023610  0.02023610       0.005
   0.02023610  0.02023610  0.02023610       0.005
   0.03035415  0.02023610  0.02023610       0.005
   0.04047221  0.02023610  0.02023610       0.005
   0.05059026  0.02023610  0.02023610       0.005
   0.06070831  0.02023610  0.02023610       0.002
   0.00000000  0.03035415  0.02023610       0.005
   0.01011805  0.03035415  0.02023610       0.009
   0.02023610  0.03035415  0.02023610       0.009
   0.03035415  0.03035415  0.02023610       0.009
   0.04047221  0.03035415  0.02023610       0.009
   0.05059026  0.03035415  0.02023610       0.009
   0.06070831  0.03035415  0.02023610       0.005
   0.00000000  0.04047221  0.02023610       0.005
   0.01011805  0.04047221  0.02023610       0.009
   0.02023610  0.04047221  0.02023610       0.009
   0.03035415  0.04047221  0.02023610       0.009
   0.04047221  0.04047221  0.02023610       0.009
   0.05059026  0.04047221  0.02023610       0.009
   0.06070831  0.04047221  0.02023610       0.005
   0.00000000  0.05059026  0.02023610       0.005
   0.01011805  0.05059026  0.02023610       0.009
   0.02023610  0.05059026  0.02023610       0.009
   0.03035415  0.05059026  0.02023610       0.009
   0.04047221  0.05059026  0.02023610       0.009
   0.05059026  0.05059026  0.02023610       0.009
   0.06070831  0.05059026  0.02023610       0.005
   0.00000000  0.06070831  0.02023610       0.002
   0.01011805  0.06070831  0.02023610       0.005
   0.02023610  0.06070831  0.02023610       0.005
   0.03035415  0.06070831  0.02023610       0.005
   0.04047221  0.06070831  0.02023610       0.005
   0.05059026  0.06070831  0.02023610       0.005
   0.06070831  0.06070831  0.02023610       0.002
   0.00000000  0.03035415  0.03035415       0.002
   0.01011805  0.03035415  0.03035415       0.005
   0.02023610  0.03035415  0.03035415       0.005
   0.03035415  0.03035415  0.03035415       0.005
   0.04047221  0.03035415  0.03035415       0.005
   0.05059026  0.03035415  0.03035415       0.005
   0.06070831  0.03035415  0.03035415       0.002
   0.00000000  0.04047221  0.03035415       0.005
   0.01011805  0.04047221  0.03035415       0.009
   0.02023610  0.04047221  0.03035415       0.009
   0.03035415  0.04047221  0.03035415       0.009
   0.04047221  0.04047221  0.03035415       0.009
   0.05059026  0.04047221  0.03035415       0.009
   0.06070831  0.04047221  0.03035415       0.005
   0.00000000  0.05059026  0.03035415       0.005
   0.01011805  0.05059026  0.03035415       0.009
   0.02023610  0.05059026  0.03035415       0.009
   0.03035415  0.05059026  0.03035415       0.009
   0.04047221  0.05059026  0.03035415       0.009
   0.05059026  0.05059026  0.03035415       0.009
   0.06070831  0.05059026  0.03035415       0.005
   0.00000000  0.06070831  0.03035415       0.002
   0.01011805  0.06070831  0.03035415       0.005
   0.02023610  0.06070831  0.03035415       0.005
   0.03035415  0.06070831  0.03035415       0.005
   0.04047221  0.06070831  0.03035415       0.005
   0.05059026  0.06070831  0.03035415       0.005
   0.06070831  0.06070831  0.03035415       0.002
   0.00000000  0.04047221  0.04047221       0.002
   0.01011805  0.04047221  0.04047221       0.005
   0.02023610  0.04047221  0.04047221       0.005
   0.03035415  0.04047221  0.04047221       0.005
   0.04047221  0.04047221  0.04047221       0.005
   0.05059026  0.04047221  0.04047221       0.005
   0.06070831  0.04047221  0.04047221       0.002
   0.00000000  0.05059026  0.04047221       0.005
   0.01011805  0.05059026  0.04047221       0.009
   0.02023610  0.05059026  0.04047221       0.009
   0.03035415  0.05059026  0.04047221       0.009
   0.04047221  0.05059026  0.04047221       0.009
   0.05059026  0.05059026  0.04047221       0.009
   0.06070831  0.05059026  0.04047221       0.005
   0.00000000  0.06070831  0.04047221       0.002
   0.01011805  0.06070831  0.04047221       0.005
   0.02023610  0.06070831  0.04047221       0.005
   0.03035415  0.06070831  0.04047221       0.005
   0.04047221  0.06070831  0.04047221       0.005
   0.05059026  0.06070831  0.04047221       0.005
   0.06070831  0.06070831  0.04047221       0.002
   0.00000000  0.05059026  0.05059026       0.002
   0.01011805  0.05059026  0.05059026       0.005
   0.02023610  0.05059026  0.05059026       0.005
   0.03035415  0.05059026  0.05059026       0.005
   0.04047221  0.05059026  0.05059026       0.005
   0.05059026  0.05059026  0.05059026       0.005
   0.06070831  0.05059026  0.05059026       0.002
   0.00000000  0.06070831  0.05059026       0.002
   0.01011805  0.06070831  0.05059026       0.005
   0.02023610  0.06070831  0.05059026       0.005
   0.03035415  0.06070831  0.05059026       0.005
   0.04047221  0.06070831  0.05059026       0.005
   0.05059026  0.06070831  0.05059026       0.005
   0.06070831  0.06070831  0.05059026       0.002
   0.00000000  0.06070831  0.06070831       0.001
   0.01011805  0.06070831  0.06070831       0.001
   0.02023610  0.06070831  0.06070831       0.001
   0.03035415  0.06070831  0.06070831       0.001
   0.04047221  0.06070831  0.06070831       0.001
   0.05059026  0.06070831  0.06070831       0.001
   0.06070831  0.06070831  0.06070831       0.001
 
 k-points in reciprocal lattice and weights: Automatic mesh                          
   0.00000000  0.00000000  0.00000000       0.001
   0.08333333  0.00000000  0.00000000       0.001
   0.16666667  0.00000000  0.00000000       0.001
   0.25000000  0.00000000  0.00000000       0.001
   0.33333333  0.00000000  0.00000000       0.001
   0.41666667  0.00000000  0.00000000       0.001
   0.50000000  0.00000000  0.00000000       0.001
   0.00000000  0.08333333  0.00000000       0.002
   0.08333333  0.08333333  0.00000000       0.005
   0.16666667  0.08333333  0.00000000       0.005
   0.25000000  0.08333333  0.00000000       0.005
   0.33333333  0.08333333  0.00000000       0.005
   0.41666667  0.08333333  0.00000000       0.005
   0.50000000  0.08333333  0.00000000       0.002
   0.00000000  0.16666667  0.00000000       0.002
   0.08333333  0.16666667  0.00000000       0.005
   0.16666667  0.16666667  0.00000000       0.005
   0.25000000  0.16666667  0.00000000       0.005
   0.33333333  0.16666667  0.00000000       0.005
   0.41666667  0.16666667  0.00000000       0.005
   0.50000000  0.16666667  0.00000000       0.002
   0.00000000  0.25000000  0.00000000       0.002
   0.08333333  0.25000000  0.00000000       0.005
   0.16666667  0.25000000  0.00000000       0.005
   0.25000000  0.25000000  0.00000000       0.005
   0.33333333  0.25000000  0.00000000       0.005
   0.41666667  0.25000000  0.00000000       0.005
   0.50000000  0.25000000  0.00000000       0.002
   0.00000000  0.33333333  0.00000000       0.002
   0.08333333  0.33333333  0.00000000       0.005
   0.16666667  0.33333333  0.00000000       0.005
   0.25000000  0.33333333  0.00000000       0.005
   0.33333333  0.33333333  0.00000000       0.005
   0.41666667  0.33333333  0.00000000       0.005
   0.50000000  0.33333333  0.00000000       0.002
   0.00000000  0.41666667  0.00000000       0.002
   0.08333333  0.41666667  0.00000000       0.005
   0.16666667  0.41666667  0.00000000       0.005
   0.25000000  0.41666667  0.00000000       0.005
   0.33333333  0.41666667  0.00000000       0.005
   0.41666667  0.41666667  0.00000000       0.005
   0.50000000  0.41666667  0.00000000       0.002
   0.00000000  0.50000000  0.00000000       0.001
   0.08333333  0.50000000  0.00000000       0.002
   0.16666667  0.50000000  0.00000000       0.002
   0.25000000  0.50000000  0.00000000       0.002
   0.33333333  0.50000000  0.00000000       0.002
   0.41666667  0.50000000  0.00000000       0.002
   0.50000000  0.50000000  0.00000000       0.001
   0.00000000  0.08333333  0.08333333       0.002
   0.08333333  0.08333333  0.08333333       0.005
   0.16666667  0.08333333  0.08333333       0.005
   0.25000000  0.08333333  0.08333333       0.005
   0.33333333  0.08333333  0.08333333       0.005
   0.41666667  0.08333333  0.08333333       0.005
   0.50000000  0.08333333  0.08333333       0.002
   0.00000000  0.16666667  0.08333333       0.005
   0.08333333  0.16666667  0.08333333       0.009
   0.16666667  0.16666667  0.08333333       0.009
   0.25000000  0.16666667  0.08333333       0.009
   0.33333333  0.16666667  0.08333333       0.009
   0.41666667  0.16666667  0.08333333       0.009
   0.50000000  0.16666667  0.08333333       0.005
   0.00000000  0.25000000  0.08333333       0.005
   0.08333333  0.25000000  0.08333333       0.009
   0.16666667  0.25000000  0.08333333       0.009
   0.25000000  0.25000000  0.08333333       0.009
   0.33333333  0.25000000  0.08333333       0.009
   0.41666667  0.25000000  0.08333333       0.009
   0.50000000  0.25000000  0.08333333       0.005
   0.00000000  0.33333333  0.08333333       0.005
   0.08333333  0.33333333  0.08333333       0.009
   0.16666667  0.33333333  0.08333333       0.009
   0.25000000  0.33333333  0.08333333       0.009
   0.33333333  0.33333333  0.08333333       0.009
   0.41666667  0.33333333  0.08333333       0.009
   0.50000000  0.33333333  0.08333333       0.005
   0.00000000  0.41666667  0.08333333       0.005
   0.08333333  0.41666667  0.08333333       0.009
   0.16666667  0.41666667  0.08333333       0.009
   0.25000000  0.41666667  0.08333333       0.009
   0.33333333  0.41666667  0.08333333       0.009
   0.41666667  0.41666667  0.08333333       0.009
   0.50000000  0.41666667  0.08333333       0.005
   0.00000000  0.50000000  0.08333333       0.002
   0.08333333  0.50000000  0.08333333       0.005
   0.16666667  0.50000000  0.08333333       0.005
   0.25000000  0.50000000  0.08333333       0.005
   0.33333333  0.50000000  0.08333333       0.005
   0.41666667  0.50000000  0.08333333       0.005
   0.50000000  0.50000000  0.08333333       0.002
   0.00000000  0.16666667  0.16666667       0.002
   0.08333333  0.16666667  0.16666667       0.005
   0.16666667  0.16666667  0.16666667       0.005
   0.25000000  0.16666667  0.16666667       0.005
   0.33333333  0.16666667  0.16666667       0.005
   0.41666667  0.16666667  0.16666667       0.005
   0.50000000  0.16666667  0.16666667       0.002
   0.00000000  0.25000000  0.16666667       0.005
   0.08333333  0.25000000  0.16666667       0.009
   0.16666667  0.25000000  0.16666667       0.009
   0.25000000  0.25000000  0.16666667       0.009
   0.33333333  0.25000000  0.16666667       0.009
   0.41666667  0.25000000  0.16666667       0.009
   0.50000000  0.25000000  0.16666667       0.005
   0.00000000  0.33333333  0.16666667       0.005
   0.08333333  0.33333333  0.16666667       0.009
   0.16666667  0.33333333  0.16666667       0.009
   0.25000000  0.33333333  0.16666667       0.009
   0.33333333  0.33333333  0.16666667       0.009
   0.41666667  0.33333333  0.16666667       0.009
   0.50000000  0.33333333  0.16666667       0.005
   0.00000000  0.41666667  0.16666667       0.005
   0.08333333  0.41666667  0.16666667       0.009
   0.16666667  0.41666667  0.16666667       0.009
   0.25000000  0.41666667  0.16666667       0.009
   0.33333333  0.41666667  0.16666667       0.009
   0.41666667  0.41666667  0.16666667       0.009
   0.50000000  0.41666667  0.16666667       0.005
   0.00000000  0.50000000  0.16666667       0.002
   0.08333333  0.50000000  0.16666667       0.005
   0.16666667  0.50000000  0.16666667       0.005
   0.25000000  0.50000000  0.16666667       0.005
   0.33333333  0.50000000  0.16666667       0.005
   0.41666667  0.50000000  0.16666667       0.005
   0.50000000  0.50000000  0.16666667       0.002
   0.00000000  0.25000000  0.25000000       0.002
   0.08333333  0.25000000  0.25000000       0.005
   0.16666667  0.25000000  0.25000000       0.005
   0.25000000  0.25000000  0.25000000       0.005
   0.33333333  0.25000000  0.25000000       0.005
   0.41666667  0.25000000  0.25000000       0.005
   0.50000000  0.25000000  0.25000000       0.002
   0.00000000  0.33333333  0.25000000       0.005
   0.08333333  0.33333333  0.25000000       0.009
   0.16666667  0.33333333  0.25000000       0.009
   0.25000000  0.33333333  0.25000000       0.009
   0.33333333  0.33333333  0.25000000       0.009
   0.41666667  0.33333333  0.25000000       0.009
   0.50000000  0.33333333  0.25000000       0.005
   0.00000000  0.41666667  0.25000000       0.005
   0.08333333  0.41666667  0.25000000       0.009
   0.16666667  0.41666667  0.25000000       0.009
   0.25000000  0.41666667  0.25000000       0.009
   0.33333333  0.41666667  0.25000000       0.009
   0.41666667  0.41666667  0.25000000       0.009
   0.50000000  0.41666667  0.25000000       0.005
   0.00000000  0.50000000  0.25000000       0.002
   0.08333333  0.50000000  0.25000000       0.005
   0.16666667  0.50000000  0.25000000       0.005
   0.25000000  0.50000000  0.25000000       0.005
   0.33333333  0.50000000  0.25000000       0.005
   0.41666667  0.50000000  0.25000000       0.005
   0.50000000  0.50000000  0.25000000       0.002
   0.00000000  0.33333333  0.33333333       0.002
   0.08333333  0.33333333  0.33333333       0.005
   0.16666667  0.33333333  0.33333333       0.005
   0.25000000  0.33333333  0.33333333       0.005
   0.33333333  0.33333333  0.33333333       0.005
   0.41666667  0.33333333  0.33333333       0.005
   0.50000000  0.33333333  0.33333333       0.002
   0.00000000  0.41666667  0.33333333       0.005
   0.08333333  0.41666667  0.33333333       0.009
   0.16666667  0.41666667  0.33333333       0.009
   0.25000000  0.41666667  0.33333333       0.009
   0.33333333  0.41666667  0.33333333       0.009
   0.41666667  0.41666667  0.33333333       0.009
   0.50000000  0.41666667  0.33333333       0.005
   0.00000000  0.50000000  0.33333333       0.002
   0.08333333  0.50000000  0.33333333       0.005
   0.16666667  0.50000000  0.33333333       0.005
   0.25000000  0.50000000  0.33333333       0.005
   0.33333333  0.50000000  0.33333333       0.005
   0.41666667  0.50000000  0.33333333       0.005
   0.50000000  0.50000000  0.33333333       0.002
   0.00000000  0.41666667  0.41666667       0.002
   0.08333333  0.41666667  0.41666667       0.005
   0.16666667  0.41666667  0.41666667       0.005
   0.25000000  0.41666667  0.41666667       0.005
   0.33333333  0.41666667  0.41666667       0.005
   0.41666667  0.41666667  0.41666667       0.005
   0.50000000  0.41666667  0.41666667       0.002
   0.00000000  0.50000000  0.41666667       0.002
   0.08333333  0.50000000  0.41666667       0.005
   0.16666667  0.50000000  0.41666667       0.005
   0.25000000  0.50000000  0.41666667       0.005
   0.33333333  0.50000000  0.41666667       0.005
   0.41666667  0.50000000  0.41666667       0.005
   0.50000000  0.50000000  0.41666667       0.002
   0.00000000  0.50000000  0.50000000       0.001
   0.08333333  0.50000000  0.50000000       0.001
   0.16666667  0.50000000  0.50000000       0.001
   0.25000000  0.50000000  0.50000000       0.001
   0.33333333  0.50000000  0.50000000       0.001
   0.41666667  0.50000000  0.50000000       0.001
   0.50000000  0.50000000  0.50000000       0.001
 
 position of ions in fractional coordinates (direct lattice) 
   0.25121417  0.25000000  0.00000000
   0.75000000  0.25000000  0.00000000
   0.25000000  0.75000000  0.00000000
   0.75000000  0.75000000  0.00000000
   0.25000000  0.25000000  0.50000000
   0.75000000  0.25000000  0.50000000
   0.25000000  0.75000000  0.50000000
   0.75000000  0.75000000  0.50000000
   0.25000000  0.00000000  0.25000000
   0.75000000  0.00000000  0.25000000
   0.25000000  0.50000000  0.25000000
   0.75000000  0.50000000  0.25000000
   0.25000000  0.00000000  0.75000000
   0.75000000  0.00000000  0.75000000
   0.25000000  0.50000000  0.75000000
   0.75000000  0.50000000  0.75000000
   0.00000000  0.25000000  0.25000000
   0.50000000  0.25000000  0.25000000
   0.00000000  0.75000000  0.25000000
   0.50000000  0.75000000  0.25000000
   0.00000000  0.25000000  0.75000000
   0.50000000  0.25000000  0.75000000
   0.00000000  0.75000000  0.75000000
   0.50000000  0.75000000  0.75000000
   0.00000000  0.00000000  0.00000000
   0.50000000  0.00000000  0.00000000
   0.00000000  0.50000000  0.00000000
   0.50000000  0.50000000  0.00000000
   0.00000000  0.00000000  0.50000000
   0.50000000  0.00000000  0.50000000
   0.00000000  0.50000000  0.50000000
   0.50000000  0.50000000  0.50000000
 
 position of ions in cartesian coordinates  (Angst):
   2.06902625  2.05902625  0.00000000
   6.17707875  2.05902625  0.00000000
   2.05902625  6.17707875  0.00000000
   6.17707875  6.17707875  0.00000000
   2.05902625  2.05902625  4.11805250
   6.17707875  2.05902625  4.11805250
   2.05902625  6.17707875  4.11805250
   6.17707875  6.17707875  4.11805250
   2.05902625  0.00000000  2.05902625
   6.17707875  0.00000000  2.05902625
   2.05902625  4.11805250  2.05902625
   6.17707875  4.11805250  2.05902625
   2.05902625  0.00000000  6.17707875
   6.17707875  0.00000000  6.17707875
   2.05902625  4.11805250  6.17707875
   6.17707875  4.11805250  6.17707875
   0.00000000  2.05902625  2.05902625
   4.11805250  2.05902625  2.05902625
   0.00000000  6.17707875  2.05902625
   4.11805250  6.17707875  2.05902625
   0.00000000  2.05902625  6.17707875
   4.11805250  2.05902625  6.17707875
   0.00000000  6.17707875  6.17707875
   4.11805250  6.17707875  6.17707875
   0.00000000  0.00000000  0.00000000
   4.11805250  0.00000000  0.00000000
   0.00000000  4.11805250  0.00000000
   4.11805250  4.11805250  0.00000000
   0.00000000  0.00000000  4.11805250
   4.11805250  0.00000000  4.11805250
   0.00000000  4.11805250  4.11805250
   4.11805250  4.11805250  4.11805250
 


--------------------------------------------------------------------------------------------------------


 k-point  1 :  0.00000.00000.0000  plane waves:  14147
 k-point  2 :  0.08330.00000.0000  plane waves:  14138
 k-point  3 :  0.16670.00000.0000  plane waves:  14154
 k-point  4 :  0.25000.00000.0000  plane waves:  14138
 k-point  5 :  0.33330.00000.0000  plane waves:  14226
 k-point  6 :  0.41670.00000.0000  plane waves:  14186
 k-point  7 :  0.50000.00000.0000  plane waves:  14190
 k-point  8 :  0.00000.08330.0000  plane waves:  14138
 k-point  9 :  0.08330.08330.0000  plane waves:  14143
 k-point 10 :  0.16670.08330.0000  plane waves:  14156
 k-point 11 :  0.25000.08330.0000  plane waves:  14173
 k-point 12 :  0.33330.08330.0000  plane waves:  14184
 k-point 13 :  0.41670.08330.0000  plane waves:  14172
 k-point 14 :  0.50000.08330.0000  plane waves:  14186
 k-point 15 :  0.00000.16670.0000  plane waves:  14154
 k-point 16 :  0.08330.16670.0000  plane waves:  14156
 k-point 17 :  0.16670.16670.0000  plane waves:  14167
 k-point 18 :  0.25000.16670.0000  plane waves:  14160
 k-point 19 :  0.33330.16670.0000  plane waves:  14179
 k-point 20 :  0.41670.16670.0000  plane waves:  14182
 k-point 21 :  0.50000.16670.0000  plane waves:  14176
 k-point 22 :  0.00000.25000.0000  plane waves:  14138
 k-point 23 :  0.08330.25000.0000  plane waves:  14173
 k-point 24 :  0.16670.25000.0000  plane waves:  14160
 k-point 25 :  0.25000.25000.0000  plane waves:  14143
 k-point 26 :  0.33330.25000.0000  plane waves:  14171
 k-point 27 :  0.41670.25000.0000  plane waves:  14170
 k-point 28 :  0.50000.25000.0000  plane waves:  14194
 k-point 29 :  0.00000.33330.0000  plane waves:  14226
 k-point 30 :  0.08330.33330.0000  plane waves:  14184
 k-point 31 :  0.16670.33330.0000  plane waves:  14179
 k-point 32 :  0.25000.33330.0000  plane waves:  14171
 k-point 33 :  0.33330.33330.0000  plane waves:  14163
 k-point 34 :  0.41670.33330.0000  plane waves:  14176
 k-point 35 :  0.50000.33330.0000  plane waves:  14156
 k-point 36 :  0.00000.41670.0000  plane waves:  14186
 k-point 37 :  0.08330.41670.0000  plane waves:  14172
 k-point 38 :  0.16670.41670.0000  plane waves:  14182
 k-point 39 :  0.25000.41670.0000  plane waves:  14170
 k-point 40 :  0.33330.41670.0000  plane waves:  14176
 k-point 41 :  0.41670.41670.0000  plane waves:  14168
 k-point 42 :  0.50000.41670.0000  plane waves:  14172
 k-point 43 :  0.00000.50000.0000  plane waves:  14190
 k-point 44 :  0.08330.50000.0000  plane waves:  14186
 k-point 45 :  0.16670.50000.0000  plane waves:  14176
 k-point 46 :  0.25000.50000.0000  plane waves:  14194
 k-point 47 :  0.33330.50000.0000  plane waves:  14156
 k-point 48 :  0.41670.50000.0000  plane waves:  14172
 k-point 49 :  0.50000.50000.0000  plane waves:  14108
 k-point 50 :  0.00000.08330.0833  plane waves:  14143
 k-point 51 :  0.08330.08330.0833  plane waves:  14150
 k-point 52 :  0.16670.08330.0833  plane waves:  14154
 k-point 53 :  0.25000.08330.0833  plane waves:  14166
 k-point 54 :  0.33330.08330.0833  plane waves:  14173
 k-point 55 :  0.41670.08330.0833  plane waves:  14188
 k-point 56 :  0.50000.08330.0833  plane waves:  14174
 k-point 57 :  0.00000.16670.0833  plane waves:  14156
 k-point 58 :  0.08330.16670.0833  plane waves:  14154
 k-point 59 :  0.16670.16670.0833  plane waves:  14158
 k-point 60 :  0.25000.16670.0833  plane waves:  14159
 k-point 61 :  0.33330.16670.0833  plane waves:  14182
 k-point 62 :  0.41670.16670.0833  plane waves:  14187
 k-point 63 :  0.50000.16670.0833  plane waves:  14200
 k-point 64 :  0.00000.25000.0833  plane waves:  14173
 k-point 65 :  0.08330.25000.0833  plane waves:  14166
 k-point 66 :  0.16670.25000.0833  plane waves:  14159
 k-point 67 :  0.25000.25000.0833  plane waves:  14162
 k-point 68 :  0.33330.25000.0833  plane waves:  14169
 k-point 69 :  0.41670.25000.0833  plane waves:  14186
 k-point 70 :  0.50000.25000.0833  plane waves:  14192
 k-point 71 :  0.00000.33330.0833  plane waves:  14184
 k-point 72 :  0.08330.33330.0833  plane waves:  14173
 k-point 73 :  0.16670.33330.0833  plane waves:  14182
 k-point 74 :  0.25000.33330.0833  plane waves:  14169
 k-point 75 :  0.33330.33330.0833  plane waves:  14171
 k-point 76 :  0.41670.33330.0833  plane waves:  14185
 k-point 77 :  0.50000.33330.0833  plane waves:  14178
 k-point 78 :  0.00000.41670.0833  plane waves:  14172
 k-point 79 :  0.08330.41670.0833  plane waves:  14188
 k-point 80 :  0.16670.41670.0833  plane waves:  14187
 k-point 81 :  0.25000.41670.0833  plane waves:  14186
 k-point 82 :  0.33330.41670.0833  plane waves:  14185
 k-point 83 :  0.41670.41670.0833  plane waves:  14186
 k-point 84 :  0.50000.41670.0833  plane waves:  14178
 k-point 85 :  0.00000.50000.0833  plane waves:  14186
 k-point 86 :  0.08330.50000.0833  plane waves:  14174
 k-point 87 :  0.16670.50000.0833  plane waves:  14200
 k-point 88 :  0.25000.50000.0833  plane waves:  14192
 k-point 89 :  0.33330.50000.0833  plane waves:  14178
 k-point 90 :  0.41670.50000.0833  plane waves:  14178
 k-point 91 :  0.50000.50000.0833  plane waves:  14188
 k-point 92 :  0.00000.16670.1667  plane waves:  14167
 k-point 93 :  0.08330.16670.1667  plane waves:  14158
 k-point 94 :  0.16670.16670.1667  plane waves:  14192
 k-point 95 :  0.25000.16670.1667  plane waves:  14175
 k-point 96 :  0.33330.16670.1667  plane waves:  14175
 k-point 97 :  0.41670.16670.1667  plane waves:  14178
 k-point 98 :  0.50000.16670.1667  plane waves:  14180
 k-point 99 :  0.00000.25000.1667  plane waves:  14160
 k-point ** :  0.08330.25000.1667  plane waves:  14159
 k-point ** :  0.16670.25000.1667  plane waves:  14175
 k-point ** :  0.25000.25000.1667  plane waves:  14194
 k-point ** :  0.33330.25000.1667  plane waves:  14191
 k-point ** :  0.41670.25000.1667  plane waves:  14194
 k-point ** :  0.50000.25000.1667  plane waves:  14194
 k-point ** :  0.00000.33330.1667  plane waves:  14179
 k-point ** :  0.08330.33330.1667  plane waves:  14182
 k-point ** :  0.16670.33330.1667  plane waves:  14175
 k-point ** :  0.25000.33330.1667  plane waves:  14191
 k-point ** :  0.33330.33330.1667  plane waves:  14203
 k-point ** :  0.41670.33330.1667  plane waves:  14208
 k-point ** :  0.50000.33330.1667  plane waves:  14190
 k-point ** :  0.00000.41670.1667  plane waves:  14182
 k-point ** :  0.08330.41670.1667  plane waves:  14187
 k-point ** :  0.16670.41670.1667  plane waves:  14178
 k-point ** :  0.25000.41670.1667  plane waves:  14194
 k-point ** :  0.33330.41670.1667  plane waves:  14208
 k-point ** :  0.41670.41670.1667  plane waves:  14193
 k-point ** :  0.50000.41670.1667  plane waves:  14196
 k-point ** :  0.00000.50000.1667  plane waves:  14176
 k-point ** :  0.08330.50000.1667  plane waves:  14200
 k-point ** :  0.16670.50000.1667  plane waves:  14180
 k-point ** :  0.25000.50000.1667  plane waves:  14194
 k-point ** :  0.33330.50000.1667  plane waves:  14190
 k-point ** :  0.41670.50000.1667  plane waves:  14196
 k-point ** :  0.50000.50000.1667  plane waves:  14200
 k-point ** :  0.00000.25000.2500  plane waves:  14143
 k-point ** :  0.08330.25000.2500  plane waves:  14162
 k-point ** :  0.16670.25000.2500  plane waves:  14194
 k-point ** :  0.25000.25000.2500  plane waves:  14186
 k-point ** :  0.33330.25000.2500  plane waves:  14213
 k-point ** :  0.41670.25000.2500  plane waves:  14204
 k-point ** :  0.50000.25000.2500  plane waves:  14202
 k-point ** :  0.00000.33330.2500  plane waves:  14171
 k-point ** :  0.08330.33330.2500  plane waves:  14169
 k-point ** :  0.16670.33330.2500  plane waves:  14191
 k-point ** :  0.25000.33330.2500  plane waves:  14213
 k-point ** :  0.33330.33330.2500  plane waves:  14211
 k-point ** :  0.41670.33330.2500  plane waves:  14185
 k-point ** :  0.50000.33330.2500  plane waves:  14206
 k-point ** :  0.00000.41670.2500  plane waves:  14170
 k-point ** :  0.08330.41670.2500  plane waves:  14186
 k-point ** :  0.16670.41670.2500  plane waves:  14194
 k-point ** :  0.25000.41670.2500  plane waves:  14204
 k-point ** :  0.33330.41670.2500  plane waves:  14185
 k-point ** :  0.41670.41670.2500  plane waves:  14191
 k-point ** :  0.50000.41670.2500  plane waves:  14210
 k-point ** :  0.00000.50000.2500  plane waves:  14194
 k-point ** :  0.08330.50000.2500  plane waves:  14192
 k-point ** :  0.16670.50000.2500  plane waves:  14194
 k-point ** :  0.25000.50000.2500  plane waves:  14202
 k-point ** :  0.33330.50000.2500  plane waves:  14206
 k-point ** :  0.41670.50000.2500  plane waves:  14210
 k-point ** :  0.50000.50000.2500  plane waves:  14168
 k-point ** :  0.00000.33330.3333  plane waves:  14163
 k-point ** :  0.08330.33330.3333  plane waves:  14171
 k-point ** :  0.16670.33330.3333  plane waves:  14203
 k-point ** :  0.25000.33330.3333  plane waves:  14211
 k-point ** :  0.33330.33330.3333  plane waves:  14205
 k-point ** :  0.41670.33330.3333  plane waves:  14195
 k-point ** :  0.50000.33330.3333  plane waves:  14212
 k-point ** :  0.00000.41670.3333  plane waves:  14176
 k-point ** :  0.08330.41670.3333  plane waves:  14185
 k-point ** :  0.16670.41670.3333  plane waves:  14208
 k-point ** :  0.25000.41670.3333  plane waves:  14185
 k-point ** :  0.33330.41670.3333  plane waves:  14195
 k-point ** :  0.41670.41670.3333  plane waves:  14200
 k-point ** :  0.50000.41670.3333  plane waves:  14192
 k-point ** :  0.00000.50000.3333  plane waves:  14156
 k-point ** :  0.08330.50000.3333  plane waves:  14178
 k-point ** :  0.16670.50000.3333  plane waves:  14190
 k-point ** :  0.25000.50000.3333  plane waves:  14206
 k-point ** :  0.33330.50000.3333  plane waves:  14212
 k-point ** :  0.41670.50000.3333  plane waves:  14192
 k-point ** :  0.50000.50000.3333  plane waves:  14188
 k-point ** :  0.00000.41670.4167  plane waves:  14168
 k-point ** :  0.08330.41670.4167  plane waves:  14186
 k-point ** :  0.16670.41670.4167  plane waves:  14193
 k-point ** :  0.25000.41670.4167  plane waves:  14191
 k-point ** :  0.33330.41670.4167  plane waves:  14200
 k-point ** :  0.41670.41670.4167  plane waves:  14196
 k-point ** :  0.50000.41670.4167  plane waves:  14206
 k-point ** :  0.00000.50000.4167  plane waves:  14172
 k-point ** :  0.08330.50000.4167  plane waves:  14178
 k-point ** :  0.16670.50000.4167  plane waves:  14196
 k-point ** :  0.25000.50000.4167  plane waves:  14210
 k-point ** :  0.33330.50000.4167  plane waves:  14192
 k-point ** :  0.41670.50000.4167  plane waves:  14206
 k-point ** :  0.50000.50000.4167  plane waves:  14224
 k-point ** :  0.00000.50000.5000  plane waves:  14108
 k-point ** :  0.08330.50000.5000  plane waves:  14188
 k-point ** :  0.16670.50000.5000  plane waves:  14200
 k-point ** :  0.25000.50000.5000  plane waves:  14168
 k-point ** :  0.33330.50000.5000  plane waves:  14188
 k-point ** :  0.41670.50000.5000  plane waves:  14224
 k-point ** :  0.50000.50000.5000  plane waves:  14328

 maximum and minimum number of plane-waves per node :  14328 14108

 maximum number of plane-waves:  14328
 maximal index in each direction: 
   IXMAX= 15   IYMAX= 15   IZMAX= 15
   IXMIN=-15   IYMIN=-15   IZMIN=-15

 WARNING: wrap around error must be expected set NGX to  62
 WARNING: wrap around error must be expected set NGY to  62
 WARNING: wrap around error must be expected set NGZ to  62

 parallel 3dFFT wavefunction:
    minimum data exchange during FFTs selected (reduces bandwidth)
 parallel 3dFFT charge:
    minimum data exchange during FFTs selected (reduces bandwidth)

 For storing wavefunctions 3024.30 MBYTES are necessary
 For predicting wavefunctions   36.19 MBYTES are necessary
Broyden mixing: mesh for mixing (old mesh)
   NGX = 31   NGY = 31   NGZ = 31
  (NGX  =120   NGY  =120   NGZ  =120)
 gives a total of  29791 points
 initial charge density was supplied:
 charge density of overlapping atoms calculated
 number of electron   96.0000000 magnetization 
 keeping initial charge density in first step


--------------------------------------------------------------------------------------------------------


 Maximum index for augmentation-charges         3668 (set IRDMAX)


--------------------------------------------------------------------------------------------------------


 First call to EWALD:  gamma=   0.215
 Maximum number of real-space cells 3x 3x 3
 Maximum number of reciprocal cells 3x 3x 3

    FEWALD:  VPU time    0.00: CPU time    0.00


----------------------------------------- Iteration    1(   1)  ---------------------------------------


    POTLOK:  VPU time    0.28: CPU time    0.28
    SETDIJ:  VPU time    0.01: CPU time    0.02
    EDDAV :  VPU time  180.99: CPU time  180.97
    DOS   :  VPU time    0.00: CPU time   -0.00
    ------------------------------------------
      LOOP:  VPU time  181.31: CPU time  181.29

 eigenvalue-minimisations  : 26656
 total energy-change (2. order) : 0.1216004E+03  (-0.3246836E+04)
 number of electron   96.0000000 magnetization 
 augmentation part    96.0000000 magnetization 

 Free energy of the ion-electron system (eV)
  ---------------------------------------------------
  alpha Z        PSCENC =        -6.15630361
  Ewald energy   TEWEN  =     -2308.62146778
  -1/2 Hartree   DENC   =        -4.03024973
  -V(xc)+E(xc)   XCENC  =      -842.89020552
  PAW double counting   =      1137.73615723     -115.16745734
  entropy T*S    EENTRO =        -0.00032125
  eigenvalues    EBANDS =       547.50111641
  atomic energy  EATOM  =      1713.22913220
  ---------------------------------------------------
  free energy    TOTEN  =       121.60040061 eV

  energy without entropy =      121.60072186  energy(sigma->0) =      121.60056123


--------------------------------------------------------------------------------------------------------




----------------------------------------- Iteration    1(   2)  ---------------------------------------


    EDDAV :  VPU time  217.34: CPU time  217.28
    DOS   :  VPU time    0.00: CPU time   -0.00
    ------------------------------------------
      LOOP:  VPU time  217.36: CPU time  217.30

 eigenvalue-minimisations  : 31280
 total energy-change (2. order) :-0.2277439E+03  (-0.2125876E+03)
 number of electron   96.0000000 magnetization 
 augmentation part    96.0000000 magnetization 

 Free energy of the ion-electron system (eV)
  ---------------------------------------------------
  alpha Z        PSCENC =        -6.15630361
  Ewald energy   TEWEN  =     -2308.62146778
  -1/2 Hartree   DENC   =        -4.03024973
  -V(xc)+E(xc)   XCENC  =      -842.89020552
  PAW double counting   =      1137.73615723     -115.16745734
  entropy T*S    EENTRO =        -0.00038920
  eigenvalues    EBANDS =       319.75725870
  atomic energy  EATOM  =      1713.22913220
  ---------------------------------------------------
  free energy    TOTEN  =      -106.14352506 eV

  energy without entropy =     -106.14313586  energy(sigma->0) =     -106.14333046


--------------------------------------------------------------------------------------------------------




----------------------------------------- Iteration    1(   3)  ---------------------------------------


    EDDAV :  VPU time  227.16: CPU time  227.10
    DOS   :  VPU time    0.00: CPU time   -0.00
    ------------------------------------------
      LOOP:  VPU time  227.18: CPU time  227.12

 eigenvalue-minimisations  : 33224
 total energy-change (2. order) :-0.1369425E+02  (-0.1298380E+02)
 number of electron   96.0000000 magnetization 
 augmentation part    96.0000000 magnetization 

 Free energy of the ion-electron system (eV)
  ---------------------------------------------------
  alpha Z        PSCENC =        -6.15630361
  Ewald energy   TEWEN  =     -2308.62146778
  -1/2 Hartree   DENC   =        -4.03024973
  -V(xc)+E(xc)   XCENC  =      -842.89020552
  PAW double counting   =      1137.73615723     -115.16745734
  entropy T*S    EENTRO =        -0.00065179
  eigenvalues    EBANDS =       306.06327491
  atomic energy  EATOM  =      1713.22913220
  ---------------------------------------------------
  free energy    TOTEN  =      -119.83777143 eV

  energy without entropy =     -119.83711965  energy(sigma->0) =     -119.83744554


--------------------------------------------------------------------------------------------------------




----------------------------------------- Iteration    1(   4)  ---------------------------------------


    EDDAV :  VPU time  217.66: CPU time  217.69
    DOS   :  VPU time    0.00: CPU time   -0.00
    ------------------------------------------
      LOOP:  VPU time  217.69: CPU time  217.71

 eigenvalue-minimisations  : 31420
 total energy-change (2. order) :-0.3032728E+00  (-0.2997590E+00)
 number of electron   96.0000000 magnetization 
 augmentation part    96.0000000 magnetization 

 Free energy of the ion-electron system (eV)
  ---------------------------------------------------
  alpha Z        PSCENC =        -6.15630361
  Ewald energy   TEWEN  =     -2308.62146778
  -1/2 Hartree   DENC   =        -4.03024973
  -V(xc)+E(xc)   XCENC  =      -842.89020552
  PAW double counting   =      1137.73615723     -115.16745734
  entropy T*S    EENTRO =        -0.00067926
  eigenvalues    EBANDS =       305.76002957
  atomic energy  EATOM  =      1713.22913220
  ---------------------------------------------------
  free energy    TOTEN  =      -120.14104424 eV

  energy without entropy =     -120.14036499  energy(sigma->0) =     -120.14070462


--------------------------------------------------------------------------------------------------------




----------------------------------------- Iteration    1(   5)  ---------------------------------------


    EDDAV :  VPU time  221.90: CPU time  221.85
    DOS   :  VPU time    0.00: CPU time   -0.00
    CHARGE:  VPU time   10.35: CPU time   10.35
    MIXING:  VPU time    0.01: CPU time    0.01
    ------------------------------------------
      LOOP:  VPU time  232.28: CPU time  232.22

 eigenvalue-minimisations  : 31672
 total energy-change (2. order) :-0.4149103E-02  (-0.4142640E-02)
 number of electron   95.9999996 magnetization 
 augmentation part    -1.2269205 magnetization 

 Broyden mixing:
  rms(total) = 0.51587E+00    rms(broyden)= 0.51587E+00
  rms(prec ) = 0.74938E+00
  weight for this iteration     100.00

 Free energy of the ion-electron system (eV)
  ---------------------------------------------------
  alpha Z        PSCENC =        -6.15630361
  Ewald energy   TEWEN  =     -2308.62146778
  -1/2 Hartree   DENC   =        -4.03024973
  -V(xc)+E(xc)   XCENC  =      -842.89020552
  PAW double counting   =      1137.73615723     -115.16745734
  entropy T*S    EENTRO =        -0.00068842
  eigenvalues    EBANDS =       305.75588963
  atomic energy  EATOM  =      1713.22913220
  ---------------------------------------------------
  free energy    TOTEN  =      -120.14519335 eV

  energy without entropy =     -120.14450493  energy(sigma->0) =     -120.14484914


--------------------------------------------------------------------------------------------------------




----------------------------------------- Iteration    1(   6)  ---------------------------------------


    POTLOK:  VPU time    0.34: CPU time    0.34
    SETDIJ:  VPU time    0.02: CPU time    0.02
    EDDAV :  VPU time  220.45: CPU time  220.39
    DOS   :  VPU time    0.00: CPU time   -0.00
    CHARGE:  VPU time   10.71: CPU time   10.71
    MIXING:  VPU time    0.01: CPU time    0.01
    ------------------------------------------
      LOOP:  VPU time  231.55: CPU time  231.49

 eigenvalue-minimisations  : 30900
 total energy-change (2. order) : 0.4037266E+00  (-0.5936795E-02)
 number of electron   95.9999996 magnetization 
 augmentation part    -1.2456181 magnetization 

 Broyden mixing:
  rms(total) = 0.32006E+00    rms(broyden)= 0.32006E+00
  rms(prec ) = 0.46663E+00
  weight for this iteration     100.00

 eigenvalues of (default mixing * dielectric matrix)
  average eigenvalue GAMMA=   2.6251
  2.6251

 Free energy of the ion-electron system (eV)
  ---------------------------------------------------
  alpha Z        PSCENC =        -6.15630361
  Ewald energy   TEWEN  =     -2308.62146778
  -1/2 Hartree   DENC   =        -3.15140497
  -V(xc)+E(xc)   XCENC  =      -841.90975559
  PAW double counting   =      1136.64478450     -114.07069298
  entropy T*S    EENTRO =        -0.00076780
  eigenvalues    EBANDS =       304.29500933
  atomic energy  EATOM  =      1713.22913220
  ---------------------------------------------------
  free energy    TOTEN  =      -119.74146670 eV

  energy without entropy =     -119.74069890  energy(sigma->0) =     -119.74108280


--------------------------------------------------------------------------------------------------------




----------------------------------------- Iteration    1(   7)  ---------------------------------------


    POTLOK:  VPU time    0.33: CPU time    0.33
    SETDIJ:  VPU time    0.02: CPU time    0.02
    EDDAV :  VPU time  213.48: CPU time  213.43
    DOS   :  VPU time    0.00: CPU time   -0.00
    CHARGE:  VPU time   10.48: CPU time   10.48
    MIXING:  VPU time    0.01: CPU time    0.01
    ------------------------------------------
      LOOP:  VPU time  224.34: CPU time  224.29

 eigenvalue-minimisations  : 29560
 total energy-change (2. order) : 0.2936949E+00  (-0.1741512E-01)
 number of electron   95.9999996 magnetization 
 augmentation part    -1.2810959 magnetization 

 Broyden mixing:
  rms(total) = 0.13540E-01    rms(broyden)= 0.13540E-01
  rms(prec ) = 0.16124E-01
  weight for this iteration     100.00

 eigenvalues of (default mixing * dielectric matrix)
  average eigenvalue GAMMA=   2.4948
  2.4948  2.4948

 Free energy of the ion-electron system (eV)
  ---------------------------------------------------
  alpha Z        PSCENC =        -6.15630361
  Ewald energy   TEWEN  =     -2308.62146778
  -1/2 Hartree   DENC   =        -3.09652134
  -V(xc)+E(xc)   XCENC  =      -839.86940561
  PAW double counting   =      1134.94968584     -112.42264416
  entropy T*S    EENTRO =        -0.00078951
  eigenvalues    EBANDS =       302.54054218
  atomic energy  EATOM  =      1713.22913220
  ---------------------------------------------------
  free energy    TOTEN  =      -119.44777179 eV

  energy without entropy =     -119.44698228  energy(sigma->0) =     -119.44737703

[...]
     64       9.3699      0.00000
     65      10.5512      0.00000
     66      10.5515      0.00000
     67      10.5517      0.00000
     68      10.5519      0.00000

 k-point 194 :       0.3333    0.5000    0.5000
  band No.  band energies     occupation 
      1      -1.9987      2.00000
      2      -1.9986      2.00000
      3      -1.9986      2.00000
      4      -1.9986      2.00000
      5      -1.2792      2.00000
      6      -1.2792      2.00000
      7      -1.2792      2.00000
      8      -1.2792      2.00000
      9       1.5628      2.00000
     10       1.5629      2.00000
     11       1.5629      2.00000
     12       1.5629      2.00000
     13       2.2612      2.00000
     14       2.2612      2.00000
     15       2.2612      2.00000
     16       2.2613      2.00000
     17       2.2613      2.00000
     18       2.2613      2.00000
     19       2.2613      2.00000
     20       2.2613      2.00000
     21       2.9605      2.00000
     22       2.9605      2.00000
     23       2.9605      2.00000
     24       2.9605      2.00000
     25       2.9605      2.00000
     26       2.9605      2.00000
     27       2.9605      2.00000
     28       2.9605      2.00000
     29       3.6431      2.00000
     30       3.6431      2.00000
     31       3.6431      2.00000
     32       3.6431      2.00000
     33       5.7305      2.00000
     34       5.7305      2.00000
     35       5.7306      2.00000
     36       5.7306      2.00000
     37       5.7306      2.00000
     38       5.7306      2.00000
     39       5.7308      2.00000
     40       5.7308      2.00000
     41       6.4085      2.00000
     42       6.4085      2.00000
     43       6.4085      2.00000
     44       6.4085      2.00000
     45       7.0940      2.00000
     46       7.0940      2.00000
     47       7.0940      2.00000
     48       7.0940      2.00000
     49       7.7548      0.00000
     50       7.7548      0.00000
     51       7.7550      0.00000
     52       7.7550      0.00000
     53       7.7550      0.00000
     54       7.7550      0.00000
     55       7.7552      0.00000
     56       7.7552      0.00000
     57       9.3210      0.00000
     58       9.3210      0.00000
     59       9.3210      0.00000
     60       9.3210      0.00000
     61       9.8037      0.00000
     62       9.8037      0.00000
     63       9.8037      0.00000
     64       9.8037      0.00000
     65      10.6517      0.00000
     66      10.6519      0.00000
     67      10.6520      0.00000
     68      10.6521      0.00000

 k-point 195 :       0.4167    0.5000    0.5000
  band No.  band energies     occupation 
      1      -1.8636      2.00000
      2      -1.8635      2.00000
      3      -1.8635      2.00000
      4      -1.8635      2.00000
      5      -1.5037      2.00000
      6      -1.5037      2.00000
      7      -1.5037      2.00000
      8      -1.5036      2.00000
      9       2.0447      2.00000
     10       2.0447      2.00000
     11       2.0447      2.00000
     12       2.0447      2.00000
     13       2.3926      2.00000
     14       2.3926      2.00000
     15       2.3926      2.00000
     16       2.3926      2.00000
     17       2.3926      2.00000
     18       2.3926      2.00000
     19       2.3926      2.00000
     20       2.3926      2.00000
     21       2.7423      2.00000
     22       2.7423      2.00000
     23       2.7424      2.00000
     24       2.7424      2.00000
     25       2.7424      2.00000
     26       2.7424      2.00000
     27       2.7424      2.00000
     28       2.7424      2.00000
     29       3.0865      2.00000
     30       3.0865      2.00000
     31       3.0865      2.00000
     32       3.0866      2.00000
     33       6.1997      2.00000
     34       6.1997      2.00000
     35       6.1998      2.00000
     36       6.1998      2.00000
     37       6.1998      2.00000
     38       6.1998      2.00000
     39       6.2000      2.00000
     40       6.2000      2.00000
     41       6.5375      2.00000
     42       6.5375      2.00000
     43       6.5375      2.00000
     44       6.5375      2.00000
     45       6.8802      2.00000
     46       6.8802      2.00000
     47       6.8802      2.00000
     48       6.8802      2.00000
     49       7.2138      2.00000
     50       7.2138      2.00000
     51       7.2139      2.00000
     52       7.2139      2.00000
     53       7.2139      2.00000
     54       7.2139      2.00000
     55       7.2141      2.00000
     56       7.2141      2.00000
     57      10.1123      0.00000
     58      10.1124      0.00000
     59      10.1124      0.00000
     60      10.1124      0.00000
     61      10.2634      0.00000
     62      10.2634      0.00000
     63      10.2634      0.00000
     64      10.2634      0.00000
     65      10.7785      0.00000
     66      10.7787      0.00000
     67      10.7788      0.00000
     68      10.7789      0.00000

 k-point 196 :       0.5000    0.5000    0.5000
  band No.  band energies     occupation 
      1      -1.7031      2.00000
      2      -1.6989      2.00000
      3      -1.6989      2.00000
      4      -1.6985      2.00000
      5      -1.6984      2.00000
      6      -1.6980      2.00000
      7      -1.6980      2.00000
      8      -1.6939      2.00000
      9       2.5429      2.00000
     10       2.5491      2.00000
     11       2.5491      2.00000
     12       2.5523      2.00000
     13       2.5525      2.00000
     14       2.5525      2.00000
     15       2.5529      2.00000
     16       2.5529      2.00000
     17       2.5530      2.00000
     18       2.5530      2.00000
     19       2.5530      2.00000
     20       2.5530      2.00000
     21       2.5530      2.00000
     22       2.5530      2.00000
     23       2.5531      2.00000
     24       2.5531      2.00000
     25       2.5531      2.00000
     26       2.5531      2.00000
     27       2.5535      2.00000
     28       2.5535      2.00000
     29       2.5538      2.00000
     30       2.5569      2.00000
     31       2.5569      2.00000
     32       2.5631      2.00000
     33       6.6889      2.00000
     34       6.6889      2.00000
     35       6.6907      2.00000
     36       6.6927      2.00000
     37       6.6940      2.00000
     38       6.6944      2.00000
     39       6.6945      2.00000
     40       6.6945      2.00000
     41       6.6947      2.00000
     42       6.6947      2.00000
     43       6.6947      2.00000
     44       6.6947      2.00000
     45       6.6948      2.00000
     46       6.6948      2.00000
     47       6.6948      2.00000
     48       6.6948      2.00000
     49       6.6950      2.00000
     50       6.6950      2.00000
     51       6.6951      2.00000
     52       6.6954      2.00000
     53       6.6968      2.00000
     54       6.6988      2.00000
     55       6.7005      2.00000
     56       6.7005      2.00000
     57      10.7469      0.00000
     58      10.7469      0.00000
     59      10.7469      0.00000
     60      10.7475      0.00000
     61      10.7489      0.00000
     62      10.7496      0.00000
     63      10.7496      0.00000
     64      10.7497      0.00000
     65      10.9313      0.00000
     66      10.9315      0.00000
     67      10.9326      0.00000
     68      10.9333      0.00000


--------------------------------------------------------------------------------------------------------


 soft charge-density along one line, spin component           1
         0         1         2         3         4         5         6         7         8         9
 total charge-density along one line
 
 pseudopotential strength for first ion, spin component:           1
  8.462  -0.005  -0.000   0.000  -0.000  -0.000   0.000  -0.000
 -0.005   0.000  -0.000   0.000  -0.000   0.000  -0.000   0.000
 -0.000  -0.000   1.985  -0.000  -0.000  -0.025   0.000   0.000
  0.000   0.000  -0.000   1.985   0.000   0.000  -0.025  -0.000
 -0.000  -0.000  -0.000   0.000   1.985   0.000  -0.000  -0.025
 -0.000   0.000  -0.025   0.000   0.000  -0.012   0.000   0.000
  0.000  -0.000   0.000  -0.025  -0.000   0.000  -0.012  -0.000
 -0.000   0.000   0.000  -0.000  -0.025   0.000  -0.000  -0.012
 total augmentation occupancy for first ion, spin component:           1
  1.352  -0.414   0.000   0.000   0.002   0.000  -0.000  -0.001
 -0.414   0.416   0.000   0.000  -0.003  -0.000  -0.000   0.001
  0.000   0.000   0.685   0.001   0.006  -0.135  -0.001  -0.001
  0.000   0.000   0.001   0.694  -0.004  -0.001  -0.132  -0.000
  0.002  -0.003   0.006  -0.004   0.689  -0.001  -0.000  -0.133
  0.000  -0.000  -0.135  -0.001  -0.001   0.030   0.000   0.000
 -0.000  -0.000  -0.001  -0.132  -0.000   0.000   0.030   0.000
 -0.001   0.001  -0.001  -0.000  -0.133   0.000   0.000   0.030


------------------------ aborting loop because EDIFF is reached ----------------------------------------




--------------------------------------------------------------------------------------------------------


    CHARGE:  VPU time    6.84: CPU time    6.84
    FORLOC:  VPU time    0.06: CPU time    0.06
    FORNL :  VPU time   61.21: CPU time   61.18
    STRESS:  VPU time  122.49: CPU time  122.43
    FORCOR:  VPU time    0.33: CPU time    0.33
    FORHAR:  VPU time    0.10: CPU time    0.10
    MIXING:  VPU time    0.01: CPU time    0.01


--------------------------------------------------------------------------------------------------------



  FREE ENERGIE OF THE ION-ELECTRON SYSTEM (eV)
  ---------------------------------------------------
  free  energy   TOTEN  =      -119.447810 eV

  energy  without entropy=     -119.447024  energy(sigma->0) =     -119.447417
 

  FORCE on cell =-STRESS in cart. coord.  units (eV/reduce length):
  Direction    X        Y        Z        XY       YZ       ZX
  --------------------------------------------------------------------------------------
  Alpha Z     -6.16     -6.16     -6.16
  Ewald     -769.55   -769.54   -769.54      0.00      0.00      0.00
  Hartree      1.06      1.06      1.06     -0.00     -0.00     -0.00
  E(xc)     -269.33   -269.33   -269.33      0.00     -0.00      0.00
  Local        3.06      3.05      3.05     -0.00      0.00      0.00
  n-local    598.14    598.65    597.63     -0.53     -0.11      0.32
  augment    -34.28    -34.28    -34.28      0.00      0.00      0.00
  Kinetic    463.45    456.20    470.69      5.48      0.57     -4.34
  -------------------------------------------------------------------------------------
  Total      -13.61    -13.61    -13.61      0.00      0.00      0.00
  in kB      -39.03    -39.03    -39.03      0.00      0.00      0.00
  external pressure =      -39.03 kB  Pullay stress =        0.00 kB


 VOLUME and BASIS-vectors are now :
 -----------------------------------------------------------------------------
  energy-cutoff  :      500.00
  volume of cell :      558.68
      direct lattice vectors                 reciprocal lattice vectors
     8.236104994  0.000000000  0.000000000     0.121416616  0.000000000  0.000000000
     0.000000000  8.236104994  0.000000000     0.000000000  0.121416616  0.000000000
     0.000000000  0.000000000  8.236104994     0.000000000  0.000000000  0.121416616

  length of vectors
     8.236104994  8.236104994  8.236104994     0.121416616  0.121416616  0.121416616


 FORCES acting on ions
    electron-ion (+dipol)            ewald-force                    non-local-force                 convergence-correction
 -----------------------------------------------------------------------------------------------
   0.365E+00 -.601E-13 -.161E-07   -.301E+00 0.622E-14 0.795E-14   -.100E+00 -.568E-20 -.257E-19   0.132E-05 0.486E-14 -.229E-13
   -.813E-01 0.179E-12 -.868E-13   0.795E-01 -.888E-15 0.330E-14   0.401E-02 -.972E-20 0.153E-19   0.114E-05 0.752E-14 -.306E-13
   0.259E-01 0.636E-13 -.168E-13   -.252E-01 0.266E-14 0.507E-14   -.872E-03 0.460E-19 0.106E-20   0.178E-05 -.551E-14 -.205E-13
   -.192E-01 -.331E-12 -.222E-13   0.198E-01 0.266E-14 0.863E-14   0.509E-04 0.191E-20 -.170E-20   -.297E-05 -.829E-14 -.259E-13
   0.259E-01 0.184E-13 -.716E-13   -.252E-01 -.178E-14 0.540E-14   -.872E-03 -.790E-20 0.298E-19   0.179E-05 0.222E-14 0.232E-13
   -.192E-01 -.458E-13 -.268E-13   0.198E-01 -.178E-14 0.540E-14   0.509E-04 -.383E-20 -.476E-20   -.298E-05 0.270E-14 0.308E-13
   0.103E-01 -.266E-13 -.413E-13   -.104E-01 0.178E-14 0.107E-13   0.106E-03 -.495E-20 0.501E-20   -.960E-06 -.287E-14 0.208E-13
   -.101E-01 0.138E-12 0.390E-12   0.972E-02 0.178E-14 0.717E-14   -.500E-03 0.561E-20 -.741E-21   0.533E-06 -.346E-14 0.262E-13
   0.452E-01 -.211E-03 0.211E-03   -.475E-01 0.181E-03 -.181E-03   0.651E-03 0.430E-04 -.430E-04   -.275E-07 -.784E-07 0.784E-07
   -.283E-01 0.729E-04 -.729E-04   0.267E-01 -.543E-04 0.543E-04   0.101E-02 -.168E-04 0.168E-04   -.452E-06 -.650E-08 0.651E-08
   0.452E-01 0.211E-03 0.211E-03   -.475E-01 -.181E-03 -.181E-03   0.651E-03 -.430E-04 -.430E-04   -.275E-07 0.784E-07 0.784E-07
   -.283E-01 -.729E-04 -.729E-04   0.267E-01 0.543E-04 0.543E-04   0.101E-02 0.168E-04 0.168E-04   -.452E-06 0.650E-08 0.651E-08
   0.452E-01 -.211E-03 -.211E-03   -.475E-01 0.181E-03 0.181E-03   0.651E-03 0.430E-04 0.430E-04   -.275E-07 -.784E-07 -.784E-07
   -.283E-01 0.729E-04 0.729E-04   0.267E-01 -.543E-04 -.543E-04   0.101E-02 -.168E-04 -.168E-04   -.452E-06 -.650E-08 -.651E-08
   0.452E-01 0.211E-03 -.211E-03   -.475E-01 -.181E-03 0.181E-03   0.651E-03 -.430E-04 0.430E-04   -.275E-07 0.784E-07 -.784E-07
   -.283E-01 -.729E-04 0.729E-04   0.267E-01 0.543E-04 -.543E-04   0.101E-02 0.168E-04 -.168E-04   -.452E-06 0.650E-08 -.651E-08
   -.453E-01 -.427E-15 0.796E-01   0.384E-01 -.400E-14 -.728E-01   0.119E-01 -.538E-20 -.119E-01   -.179E-06 0.361E-14 -.110E-05
   -.451E-01 -.305E-12 -.803E-01   0.382E-01 0.000E+00 0.734E-01   0.122E-01 -.385E-20 0.123E-01   -.255E-06 0.281E-14 0.115E-05
   -.504E-03 -.116E-13 0.608E-02   0.128E-02 0.266E-14 -.602E-02   -.613E-03 0.364E-19 0.797E-04   0.613E-06 -.434E-14 0.156E-05
   -.392E-03 -.389E-13 -.609E-02   0.116E-02 0.178E-14 0.603E-02   -.608E-03 -.728E-20 -.835E-04   0.389E-06 -.355E-14 -.155E-05
   -.453E-01 -.640E-15 -.796E-01   0.384E-01 -.888E-15 0.728E-01   0.119E-01 -.777E-21 0.119E-01   -.179E-06 0.523E-14 0.110E-05
   -.451E-01 0.956E-13 0.803E-01   0.382E-01 -.178E-14 -.734E-01   0.122E-01 0.596E-20 -.123E-01   -.255E-06 0.544E-14 -.115E-05
   -.504E-03 -.138E-13 -.608E-02   0.128E-02 -.266E-14 0.602E-02   -.613E-03 -.178E-20 -.797E-04   0.613E-06 -.594E-14 -.156E-05
   -.392E-03 0.143E-12 0.609E-02   0.116E-02 0.178E-14 -.603E-02   -.608E-03 0.301E-19 0.835E-04   0.389E-06 -.612E-14 0.155E-05
   -.453E-01 -.796E-01 0.663E-14   0.384E-01 0.728E-01 -.101E-13   0.119E-01 0.119E-01 0.287E-20   -.178E-06 0.109E-05 -.249E-13
   -.451E-01 0.803E-01 0.175E-13   0.382E-01 -.734E-01 -.919E-14   0.122E-01 -.123E-01 -.524E-20   -.254E-06 -.115E-05 -.228E-13
   -.453E-01 0.796E-01 0.345E-15   0.384E-01 -.728E-01 -.830E-14   0.119E-01 -.119E-01 0.357E-20   -.178E-06 -.109E-05 -.265E-13
   -.451E-01 -.803E-01 0.282E-13   0.382E-01 0.734E-01 -.740E-14   0.122E-01 0.123E-01 -.584E-20   -.254E-06 0.115E-05 -.255E-13
   -.504E-03 -.608E-02 -.630E-14   0.128E-02 0.602E-02 -.236E-14   -.613E-03 -.797E-04 0.133E-19   0.613E-06 -.156E-05 0.252E-13
   -.392E-03 0.609E-02 -.123E-12   0.116E-02 -.603E-02 -.324E-14   -.608E-03 0.835E-04 -.391E-20   0.388E-06 0.155E-05 0.232E-13
   -.504E-03 0.608E-02 -.198E-14   0.128E-02 -.602E-02 -.768E-14   -.613E-03 0.797E-04 -.915E-20   0.613E-06 0.156E-05 0.268E-13
   -.392E-03 -.609E-02 0.108E-12   0.116E-02 0.603E-02 -.856E-14   -.608E-03 -.835E-04 0.243E-20   0.388E-06 -.155E-05 0.258E-13
 -----------------------------------------------------------------------------------------------
   0.957E-06 0.296E-12 -.161E-07   0.517E-14 -.859E-15 -.673E-14   0.326E-05 0.000E+00 -.420E-17   0.159E-07 0.308E-16 -.272E-16
 
 
 POSITION                                       TOTAL-FORCE (eV/Angst)
 -----------------------------------------------------------------------------------
      2.06903      2.05903      0.00000        -0.036105     -0.000000      0.000000
      6.17708      2.05903      0.00000         0.002213      0.000000      0.000000
      2.05903      6.17708      0.00000        -0.000121     -0.000000     -0.000000
      6.17708      6.17708      0.00000         0.000593      0.000000      0.000000
      2.05903      2.05903      4.11805        -0.000121     -0.000000      0.000000
      6.17708      2.05903      4.11805         0.000593     -0.000000      0.000000
      2.05903      6.17708      4.11805         0.000053      0.000000      0.000000
      6.17708      6.17708      4.11805        -0.000860     -0.000000      0.000000
      2.05903      0.00000      2.05903        -0.001592      0.000014     -0.000014
      6.17708      0.00000      2.05903        -0.000592      0.000002     -0.000002
      2.05903      4.11805      2.05903        -0.001592     -0.000014     -0.000014
      6.17708      4.11805      2.05903        -0.000592     -0.000002     -0.000002
      2.05903      0.00000      6.17708        -0.001592      0.000014      0.000014
      6.17708      0.00000      6.17708        -0.000592      0.000002      0.000002
      2.05903      4.11805      6.17708        -0.001592     -0.000014      0.000014
      6.17708      4.11805      6.17708        -0.000592     -0.000002      0.000002
      0.00000      2.05903      2.05903         0.005084      0.000000     -0.005191
      4.11805      2.05903      2.05903         0.005211      0.000000      0.005372
      0.00000      6.17708      2.05903         0.000164      0.000000      0.000137
      4.11805      6.17708      2.05903         0.000164      0.000000     -0.000142
      0.00000      2.05903      6.17708         0.005084     -0.000000      0.005191
      4.11805      2.05903      6.17708         0.005211      0.000000     -0.005372
      0.00000      6.17708      6.17708         0.000164     -0.000000     -0.000137
      4.11805      6.17708      6.17708         0.000164     -0.000000      0.000142
      0.00000      0.00000      0.00000         0.005084      0.005191     -0.000000
      4.11805      0.00000      0.00000         0.005211     -0.005372     -0.000000
      0.00000      4.11805      0.00000         0.005084     -0.005191     -0.000000
      4.11805      4.11805      0.00000         0.005211      0.005372     -0.000000
      0.00000      0.00000      4.11805         0.000164     -0.000137     -0.000000
      4.11805      0.00000      4.11805         0.000164      0.000142     -0.000000
      0.00000      4.11805      4.11805         0.000164      0.000137      0.000000
      4.11805      4.11805      4.11805         0.000164     -0.000142     -0.000000
 -----------------------------------------------------------------------------------
    total drift:                                0.000004      0.000000     -0.000000


--------------------------------------------------------------------------------------------------------



 mean value of Nose-termostat <S>:     1.000 mean value of <T> :     0.000
 mean temperature <T/S>/<1/S>  :     0.000

     LOOP+:  VPU time 3091.51: CPU time 3090.78
  
  
 General timing and accounting informations for this job:
 ========================================================
  
                  Total CPU time used (sec):     3130.564
                            User time (sec):     2816.525
                          System time (sec):      314.039
                         Elapsed time (sec):     3129.841
  
                   Maximum memory used (kb):     4680836.
                   Average memory used (kb):           0.
  
                          Minor page faults:       925817
                          Major page faults:            0
                 Voluntary context switches:          906
