<?xml version="1.0" encoding="ISO-8859-1"?>
<modeling>
 <generator>
  <i name="program" type="string">vasp</i>
  <i name="version" type="string">4.6.28 </i>
  <i name="subversion" type="string">25Jul05 complex  parallel</i>
  <i name="platform" type="string">LinuxIFC</i>
  <i name="date" type="string">2016 10 21</i>
  <i name="time" type="string">16:39:15</i>
 </generator>
 <incar>
  <i type="string" name="PREC">accurate</i>
  <i type="int" name="IALGO">    38</i>
  <i name="EDIFF">      0.00000001</i>
  <i type="int" name="IBRION">    -1</i>
  <i name="ENCUT">    500.00000000</i>
  <i type="logical" name="LREAL"> F  </i>
  <i type="int" name="ISMEAR">     0</i>
  <i name="SIGMA">      0.01000000</i>
  <i type="logical" name="LWAVE"> F  </i>
  <i type="logical" name="LCHARG"> F  </i>
 </incar>
 <kpoints>
  <generation param="Gamma">
   <v type="int" name="divisions">      12      12      12</v>
   <v name="usershift">      0.00000000      0.00000000      0.00000000</v>
   <v name="genvec1">      0.08333333      0.00000000      0.00000000</v>
   <v name="genvec2">      0.00000000      0.08333333      0.00000000</v>
   <v name="genvec3">      0.00000000      0.00000000      0.08333333</v>
   <v name="shift">      0.00000000      0.00000000      0.00000000</v>
  </generation>
  <varray name="kpointlist" >
   <v>       0.00000000      0.00000000      0.00000000</v>
   <v>       0.08333333      0.00000000      0.00000000</v>
   <v>       0.16666667      0.00000000      0.00000000</v>
   <v>       0.25000000      0.00000000      0.00000000</v>
   <v>       0.33333333      0.00000000      0.00000000</v>
   <v>       0.41666667      0.00000000      0.00000000</v>
   <v>       0.50000000      0.00000000      0.00000000</v>
   <v>       0.00000000      0.08333333      0.00000000</v>
   <v>       0.08333333      0.08333333      0.00000000</v>
   <v>       0.16666667      0.08333333      0.00000000</v>
   <v>       0.25000000      0.08333333      0.00000000</v>
   <v>       0.33333333      0.08333333      0.00000000</v>
   <v>       0.41666667      0.08333333      0.00000000</v>
   <v>       0.50000000      0.08333333      0.00000000</v>
   <v>       0.00000000      0.16666667      0.00000000</v>
   <v>       0.08333333      0.16666667      0.00000000</v>
   <v>       0.16666667      0.16666667      0.00000000</v>
   <v>       0.25000000      0.16666667      0.00000000</v>
   <v>       0.33333333      0.16666667      0.00000000</v>
   <v>       0.41666667      0.16666667      0.00000000</v>
   <v>       0.50000000      0.16666667      0.00000000</v>
   <v>       0.00000000      0.25000000      0.00000000</v>
   <v>       0.08333333      0.25000000      0.00000000</v>
   <v>       0.16666667      0.25000000      0.00000000</v>
   <v>       0.25000000      0.25000000      0.00000000</v>
   <v>       0.33333333      0.25000000      0.00000000</v>
   <v>       0.41666667      0.25000000      0.00000000</v>
   <v>       0.50000000      0.25000000      0.00000000</v>
   <v>       0.00000000      0.33333333      0.00000000</v>
   <v>       0.08333333      0.33333333      0.00000000</v>
   <v>       0.16666667      0.33333333      0.00000000</v>
   <v>       0.25000000      0.33333333      0.00000000</v>
   <v>       0.33333333      0.33333333      0.00000000</v>
   <v>       0.41666667      0.33333333      0.00000000</v>
   <v>       0.50000000      0.33333333      0.00000000</v>
   <v>       0.00000000      0.41666667      0.00000000</v>
   <v>       0.08333333      0.41666667      0.00000000</v>
   <v>       0.16666667      0.41666667      0.00000000</v>
   <v>       0.25000000      0.41666667      0.00000000</v>
   <v>       0.33333333      0.41666667      0.00000000</v>
   <v>       0.41666667      0.41666667      0.00000000</v>
   <v>       0.50000000      0.41666667      0.00000000</v>
   <v>       0.00000000      0.50000000      0.00000000</v>
   <v>       0.08333333      0.50000000      0.00000000</v>
   <v>       0.16666667      0.50000000      0.00000000</v>
   <v>       0.25000000      0.50000000      0.00000000</v>
   <v>       0.33333333      0.50000000      0.00000000</v>
   <v>       0.41666667      0.50000000      0.00000000</v>
   <v>       0.50000000      0.50000000      0.00000000</v>
   <v>       0.00000000      0.08333333      0.08333333</v>
   <v>       0.08333333      0.08333333      0.08333333</v>
   <v>       0.16666667      0.08333333      0.08333333</v>
   <v>       0.25000000      0.08333333      0.08333333</v>
   <v>       0.33333333      0.08333333      0.08333333</v>
   <v>       0.41666667      0.08333333      0.08333333</v>
   <v>       0.50000000      0.08333333      0.08333333</v>
   <v>       0.00000000      0.16666667      0.08333333</v>
   <v>       0.08333333      0.16666667      0.08333333</v>
   <v>       0.16666667      0.16666667      0.08333333</v>
   <v>       0.25000000      0.16666667      0.08333333</v>
   <v>       0.33333333      0.16666667      0.08333333</v>
   <v>       0.41666667      0.16666667      0.08333333</v>
   <v>       0.50000000      0.16666667      0.08333333</v>
   <v>       0.00000000      0.25000000      0.08333333</v>
   <v>       0.08333333      0.25000000      0.08333333</v>
   <v>       0.16666667      0.25000000      0.08333333</v>
   <v>       0.25000000      0.25000000      0.08333333</v>
   <v>       0.33333333      0.25000000      0.08333333</v>
   <v>       0.41666667      0.25000000      0.08333333</v>
   <v>       0.50000000      0.25000000      0.08333333</v>
   <v>       0.00000000      0.33333333      0.08333333</v>
   <v>       0.08333333      0.33333333      0.08333333</v>
   <v>       0.16666667      0.33333333      0.08333333</v>
   <v>       0.25000000      0.33333333      0.08333333</v>
   <v>       0.33333333      0.33333333      0.08333333</v>
   <v>       0.41666667      0.33333333      0.08333333</v>
   <v>       0.50000000      0.33333333      0.08333333</v>
   <v>       0.00000000      0.41666667      0.08333333</v>
   <v>       0.08333333      0.41666667      0.08333333</v>
   <v>       0.16666667      0.41666667      0.08333333</v>
   <v>       0.25000000      0.41666667      0.08333333</v>
   <v>       0.33333333      0.41666667      0.08333333</v>
   <v>       0.41666667      0.41666667      0.08333333</v>
   <v>       0.50000000      0.41666667      0.08333333</v>
   <v>       0.00000000      0.50000000      0.08333333</v>
   <v>       0.08333333      0.50000000      0.08333333</v>
   <v>       0.16666667      0.50000000      0.08333333</v>
   <v>       0.25000000      0.50000000      0.08333333</v>
   <v>       0.33333333      0.50000000      0.08333333</v>
   <v>       0.41666667      0.50000000      0.08333333</v>
   <v>       0.50000000      0.50000000      0.08333333</v>
   <v>       0.00000000      0.16666667      0.16666667</v>
   <v>       0.08333333      0.16666667      0.16666667</v>
   <v>       0.16666667      0.16666667      0.16666667</v>
   <v>       0.25000000      0.16666667      0.16666667</v>
   <v>       0.33333333      0.16666667      0.16666667</v>
   <v>       0.41666667      0.16666667      0.16666667</v>
   <v>       0.50000000      0.16666667      0.16666667</v>
   <v>       0.00000000      0.25000000      0.16666667</v>
   <v>       0.08333333      0.25000000      0.16666667</v>
   <v>       0.16666667      0.25000000      0.16666667</v>
   <v>       0.25000000      0.25000000      0.16666667</v>
   <v>       0.33333333      0.25000000      0.16666667</v>
   <v>       0.41666667      0.25000000      0.16666667</v>
   <v>       0.50000000      0.25000000      0.16666667</v>
   <v>       0.00000000      0.33333333      0.16666667</v>
   <v>       0.08333333      0.33333333      0.16666667</v>
   <v>       0.16666667      0.33333333      0.16666667</v>
   <v>       0.25000000      0.33333333      0.16666667</v>
   <v>       0.33333333      0.33333333      0.16666667</v>
   <v>       0.41666667      0.33333333      0.16666667</v>
   <v>       0.50000000      0.33333333      0.16666667</v>
   <v>       0.00000000      0.41666667      0.16666667</v>
   <v>       0.08333333      0.41666667      0.16666667</v>
   <v>       0.16666667      0.41666667      0.16666667</v>
   <v>       0.25000000      0.41666667      0.16666667</v>
   <v>       0.33333333      0.41666667      0.16666667</v>
   <v>       0.41666667      0.41666667      0.16666667</v>
   <v>       0.50000000      0.41666667      0.16666667</v>
   <v>       0.00000000      0.50000000      0.16666667</v>
   <v>       0.08333333      0.50000000      0.16666667</v>
   <v>       0.16666667      0.50000000      0.16666667</v>
   <v>       0.25000000      0.50000000      0.16666667</v>
   <v>       0.33333333      0.50000000      0.16666667</v>
   <v>       0.41666667      0.50000000      0.16666667</v>
   <v>       0.50000000      0.50000000      0.16666667</v>
   <v>       0.00000000      0.25000000      0.25000000</v>
   <v>       0.08333333      0.25000000      0.25000000</v>
   <v>       0.16666667      0.25000000      0.25000000</v>
   <v>       0.25000000      0.25000000      0.25000000</v>
   <v>       0.33333333      0.25000000      0.25000000</v>
   <v>       0.41666667      0.25000000      0.25000000</v>
   <v>       0.50000000      0.25000000      0.25000000</v>
   <v>       0.00000000      0.33333333      0.25000000</v>
   <v>       0.08333333      0.33333333      0.25000000</v>
   <v>       0.16666667      0.33333333      0.25000000</v>
   <v>       0.25000000      0.33333333      0.25000000</v>
   <v>       0.33333333      0.33333333      0.25000000</v>
   <v>       0.41666667      0.33333333      0.25000000</v>
   <v>       0.50000000      0.33333333      0.25000000</v>
   <v>       0.00000000      0.41666667      0.25000000</v>
   <v>       0.08333333      0.41666667      0.25000000</v>
   <v>       0.16666667      0.41666667      0.25000000</v>
   <v>       0.25000000      0.41666667      0.25000000</v>
   <v>       0.33333333      0.41666667      0.25000000</v>
   <v>       0.41666667      0.41666667      0.25000000</v>
   <v>       0.50000000      0.41666667      0.25000000</v>
   <v>       0.00000000      0.50000000      0.25000000</v>
   <v>       0.08333333      0.50000000      0.25000000</v>
   <v>       0.16666667      0.50000000      0.25000000</v>
   <v>       0.25000000      0.50000000      0.25000000</v>
   <v>       0.33333333      0.50000000      0.25000000</v>
   <v>       0.41666667      0.50000000      0.25000000</v>
   <v>       0.50000000      0.50000000      0.25000000</v>
   <v>       0.00000000      0.33333333      0.33333333</v>
   <v>       0.08333333      0.33333333      0.33333333</v>
   <v>       0.16666667      0.33333333      0.33333333</v>
   <v>       0.25000000      0.33333333      0.33333333</v>
   <v>       0.33333333      0.33333333      0.33333333</v>
   <v>       0.41666667      0.33333333      0.33333333</v>
   <v>       0.50000000      0.33333333      0.33333333</v>
   <v>       0.00000000      0.41666667      0.33333333</v>
   <v>       0.08333333      0.41666667      0.33333333</v>
   <v>       0.16666667      0.41666667      0.33333333</v>
   <v>       0.25000000      0.41666667      0.33333333</v>
   <v>       0.33333333      0.41666667      0.33333333</v>
   <v>       0.41666667      0.41666667      0.33333333</v>
   <v>       0.50000000      0.41666667      0.33333333</v>
   <v>       0.00000000      0.50000000      0.33333333</v>
   <v>       0.08333333      0.50000000      0.33333333</v>
   <v>       0.16666667      0.50000000      0.33333333</v>
   <v>       0.25000000      0.50000000      0.33333333</v>
   <v>       0.33333333      0.50000000      0.33333333</v>
   <v>       0.41666667      0.50000000      0.33333333</v>
   <v>       0.50000000      0.50000000      0.33333333</v>
   <v>       0.00000000      0.41666667      0.41666667</v>
   <v>       0.08333333      0.41666667      0.41666667</v>
   <v>       0.16666667      0.41666667      0.41666667</v>
   <v>       0.25000000      0.41666667      0.41666667</v>
   <v>       0.33333333      0.41666667      0.41666667</v>
   <v>       0.41666667      0.41666667      0.41666667</v>
   <v>       0.50000000      0.41666667      0.41666667</v>
   <v>       0.00000000      0.50000000      0.41666667</v>
   <v>       0.08333333      0.50000000      0.41666667</v>
   <v>       0.16666667      0.50000000      0.41666667</v>
   <v>       0.25000000      0.50000000      0.41666667</v>
   <v>       0.33333333      0.50000000      0.41666667</v>
   <v>       0.41666667      0.50000000      0.41666667</v>
   <v>       0.50000000      0.50000000      0.41666667</v>
   <v>       0.00000000      0.50000000      0.50000000</v>
   <v>       0.08333333      0.50000000      0.50000000</v>
   <v>       0.16666667      0.50000000      0.50000000</v>
   <v>       0.25000000      0.50000000      0.50000000</v>
   <v>       0.33333333      0.50000000      0.50000000</v>
   <v>       0.41666667      0.50000000      0.50000000</v>
   <v>       0.50000000      0.50000000      0.50000000</v>
  </varray>
  <varray name="weights" >
   <v>       0.00057870</v>
   <v>       0.00115741</v>
   <v>       0.00115741</v>
   <v>       0.00115741</v>
   <v>       0.00115741</v>
   <v>       0.00115741</v>
   <v>       0.00057870</v>
   <v>       0.00231481</v>
   <v>       0.00462963</v>
   <v>       0.00462963</v>
   <v>       0.00462963</v>
   <v>       0.00462963</v>
   <v>       0.00462963</v>
   <v>       0.00231481</v>
   <v>       0.00231481</v>
   <v>       0.00462963</v>
   <v>       0.00462963</v>
   <v>       0.00462963</v>
   <v>       0.00462963</v>
   <v>       0.00462963</v>
   <v>       0.00231481</v>
   <v>       0.00231481</v>
   <v>       0.00462963</v>
   <v>       0.00462963</v>
   <v>       0.00462963</v>
   <v>       0.00462963</v>
   <v>       0.00462963</v>
   <v>       0.00231481</v>
   <v>       0.00231481</v>
   <v>       0.00462963</v>
   <v>       0.00462963</v>
   <v>       0.00462963</v>
   <v>       0.00462963</v>
   <v>       0.00462963</v>
   <v>       0.00231481</v>
   <v>       0.00231481</v>
   <v>       0.00462963</v>
   <v>       0.00462963</v>
   <v>       0.00462963</v>
   <v>       0.00462963</v>
   <v>       0.00462963</v>
   <v>       0.00231481</v>
   <v>       0.00115741</v>
   <v>       0.00231481</v>
   <v>       0.00231481</v>
   <v>       0.00231481</v>
   <v>       0.00231481</v>
   <v>       0.00231481</v>
   <v>       0.00115741</v>
   <v>       0.00231481</v>
   <v>       0.00462963</v>
   <v>       0.00462963</v>
   <v>       0.00462963</v>
   <v>       0.00462963</v>
   <v>       0.00462963</v>
   <v>       0.00231481</v>
   <v>       0.00462963</v>
   <v>       0.00925926</v>
   <v>       0.00925926</v>
   <v>       0.00925926</v>
   <v>       0.00925926</v>
   <v>       0.00925926</v>
   <v>       0.00462963</v>
   <v>       0.00462963</v>
   <v>       0.00925926</v>
   <v>       0.00925926</v>
   <v>       0.00925926</v>
   <v>       0.00925926</v>
   <v>       0.00925926</v>
   <v>       0.00462963</v>
   <v>       0.00462963</v>
   <v>       0.00925926</v>
   <v>       0.00925926</v>
   <v>       0.00925926</v>
   <v>       0.00925926</v>
   <v>       0.00925926</v>
   <v>       0.00462963</v>
   <v>       0.00462963</v>
   <v>       0.00925926</v>
   <v>       0.00925926</v>
   <v>       0.00925926</v>
   <v>       0.00925926</v>
   <v>       0.00925926</v>
   <v>       0.00462963</v>
   <v>       0.00231481</v>
   <v>       0.00462963</v>
   <v>       0.00462963</v>
   <v>       0.00462963</v>
   <v>       0.00462963</v>
   <v>       0.00462963</v>
   <v>       0.00231481</v>
   <v>       0.00231481</v>
   <v>       0.00462963</v>
   <v>       0.00462963</v>
   <v>       0.00462963</v>
   <v>       0.00462963</v>
   <v>       0.00462963</v>
   <v>       0.00231481</v>
   <v>       0.00462963</v>
   <v>       0.00925926</v>
   <v>       0.00925926</v>
   <v>       0.00925926</v>
   <v>       0.00925926</v>
   <v>       0.00925926</v>
   <v>       0.00462963</v>
   <v>       0.00462963</v>
   <v>       0.00925926</v>
   <v>       0.00925926</v>
   <v>       0.00925926</v>
   <v>       0.00925926</v>
   <v>       0.00925926</v>
   <v>       0.00462963</v>
   <v>       0.00462963</v>
   <v>       0.00925926</v>
   <v>       0.00925926</v>
   <v>       0.00925926</v>
   <v>       0.00925926</v>
   <v>       0.00925926</v>
   <v>       0.00462963</v>
   <v>       0.00231481</v>
   <v>       0.00462963</v>
   <v>       0.00462963</v>
   <v>       0.00462963</v>
   <v>       0.00462963</v>
   <v>       0.00462963</v>
   <v>       0.00231481</v>
   <v>       0.00231481</v>
   <v>       0.00462963</v>
   <v>       0.00462963</v>
   <v>       0.00462963</v>
   <v>       0.00462963</v>
   <v>       0.00462963</v>
   <v>       0.00231481</v>
   <v>       0.00462963</v>
   <v>       0.00925926</v>
   <v>       0.00925926</v>
   <v>       0.00925926</v>
   <v>       0.00925926</v>
   <v>       0.00925926</v>
   <v>       0.00462963</v>
   <v>       0.00462963</v>
   <v>       0.00925926</v>
   <v>       0.00925926</v>
   <v>       0.00925926</v>
   <v>       0.00925926</v>
   <v>       0.00925926</v>
   <v>       0.00462963</v>
   <v>       0.00231481</v>
   <v>       0.00462963</v>
   <v>       0.00462963</v>
   <v>       0.00462963</v>
   <v>       0.00462963</v>
   <v>       0.00462963</v>
   <v>       0.00231481</v>
   <v>       0.00231481</v>
   <v>       0.00462963</v>
   <v>       0.00462963</v>
   <v>       0.00462963</v>
   <v>       0.00462963</v>
   <v>       0.00462963</v>
   <v>       0.00231481</v>
   <v>       0.00462963</v>
   <v>       0.00925926</v>
   <v>       0.00925926</v>
   <v>       0.00925926</v>
   <v>       0.00925926</v>
   <v>       0.00925926</v>
   <v>       0.00462963</v>
   <v>       0.00231481</v>
   <v>       0.00462963</v>
   <v>       0.00462963</v>
   <v>       0.00462963</v>
   <v>       0.00462963</v>
   <v>       0.00462963</v>
   <v>       0.00231481</v>
   <v>       0.00231481</v>
   <v>       0.00462963</v>
   <v>       0.00462963</v>
   <v>       0.00462963</v>
   <v>       0.00462963</v>
   <v>       0.00462963</v>
   <v>       0.00231481</v>
   <v>       0.00231481</v>
   <v>       0.00462963</v>
   <v>       0.00462963</v>
   <v>       0.00462963</v>
   <v>       0.00462963</v>
   <v>       0.00462963</v>
   <v>       0.00231481</v>
   <v>       0.00057870</v>
   <v>       0.00115741</v>
   <v>       0.00115741</v>
   <v>       0.00115741</v>
   <v>       0.00115741</v>
   <v>       0.00115741</v>
   <v>       0.00057870</v>
  </varray>
 </kpoints>
 <parameters>
  <separator name="general" >
   <i type="string" name="SYSTEM">unknown system</i>
   <i type="logical" name="LCOMPAT"> F  </i>
  </separator>
  <separator name="electronic" >
   <i type="string" name="PREC">accura</i>
   <i name="ENMAX">    500.00000000</i>
   <i name="ENAUG">    291.05200000</i>
   <i name="EDIFF">      0.00000001</i>
   <i type="int" name="IALGO">    38</i>
   <i type="int" name="IWAVPR">    10</i>
   <i type="int" name="NBANDS">    65</i>
   <i name="NELECT">     96.00000000</i>
   <separator name="electronic smearing" >
    <i type="int" name="ISMEAR">     0</i>
    <i name="SIGMA">      0.01000000</i>
   </separator>
   <separator name="electronic projectors" >
    <i type="logical" name="LREAL"> F  </i>
    <v name="ROPT">      0.00000000</v>
    <i type="int" name="LMAXPAW">  -100</i>
    <i type="int" name="LMAXMIX">     2</i>
   </separator>
   <separator name="electronic startup" >
    <i type="int" name="ISTART">     0</i>
    <i type="int" name="ICHARG">     2</i>
    <i type="int" name="INIWAV">     1</i>
   </separator>
   <separator name="electronic spin" >
    <i type="int" name="ISPIN">     1</i>
    <i type="logical" name="LNONCOLLINEAR"> F  </i>
    <v name="MAGMOM">      1.00000000      1.00000000      1.00000000      1.00000000      1.00000000      1.00000000      1.00000000      1.00000000      1.00000000      1.00000000      1.00000000      1.00000000      1.00000000      1.00000000      1.00000000      1.00000000      1.00000000      1.00000000      1.00000000      1.00000000
      1.00000000      1.00000000      1.00000000      1.00000000      1.00000000      1.00000000      1.00000000      1.00000000      1.00000000      1.00000000      1.00000000      1.00000000</v>
    <i name="NUPDOWN">     -1.00000000</i>
    <i type="logical" name="LSORBIT"> F  </i>
    <v name="SAXIS">      0.00000000      0.00000000      1.00000000</v>
    <i type="logical" name="LSPIRAL"> F  </i>
    <v name="QSPIRAL">      0.00000000      0.00000000      0.00000000</v>
    <i type="logical" name="LZEROZ"> F  </i>
   </separator>
   <separator name="electronic exchange-correlation" >
    <i type="string" name="GGA">--</i>
    <i type="int" name="VOSKOWN">     0</i>
    <i type="logical" name="LASPH"> F  </i>
    <i type="logical" name="LMETAGGA"> F  </i>
    <i type="string" name="GGA2">--</i>
   </separator>
   <separator name="electronic convergence" >
    <i type="int" name="NELM">    60</i>
    <i type="int" name="NELMDL">     0</i>
    <i type="int" name="NELMIN">     2</i>
    <i name="ENINI">    500.00000000</i>
    <separator name="electronic convergence detail" >
     <i type="logical" name="LDIAG"> T  </i>
     <i name="WEIMIN">      0.00000000</i>
     <i name="EBREAK">      0.00000000</i>
     <i name="DEPER">      0.30000000</i>
     <i type="int" name="NRMM">     4</i>
     <i name="TIME">      0.10000000</i>
    </separator>
   </separator>
   <separator name="electronic mixer" >
    <i name="AMIX">      0.40000000</i>
    <i name="BMIX">      1.00000000</i>
    <i name="AMIN">      0.10000000</i>
    <i name="AMIX_MAG">      1.60000000</i>
    <i name="BMIX_MAG">      1.00000000</i>
    <separator name="electronic mixer details" >
     <i type="int" name="IMIX">     4</i>
     <i type="int" name="MAXMIX">   -45</i>
     <i name="WC">    100.00000000</i>
     <i type="int" name="INIMIX">     1</i>
     <i type="int" name="MIXPRE">     1</i>
     <i type="int" name="MREMOVE">     5</i>
    </separator>
   </separator>
   <separator name="electronic dipolcorrection" >
    <i type="int" name="IDIPOL">     0</i>
    <i type="logical" name="LDIPOL"> F  </i>
    <v name="DIPOL">   -100.00000000</v>
    <i name="EFIELD">      0.00000000</i>
   </separator>
  </separator>
  <separator name="grids" >
   <i type="int" name="NGX">    60</i>
   <i type="int" name="NGY">    60</i>
   <i type="int" name="NGZ">    60</i>
   <i type="int" name="NGXF">   120</i>
   <i type="int" name="NGYF">   120</i>
   <i type="int" name="NGZF">   120</i>
   <i type="logical" name="ADDGRID"> F  </i>
  </separator>
  <separator name="ionic" >
   <i type="int" name="NSW">     0</i>
   <i type="int" name="IBRION">    -1</i>
   <i type="int" name="ISIF">     2</i>
   <i name="PSTRESS">      0.00000000</i>
   <i name="EDIFFG">      0.00000010</i>
   <i type="int" name="NFREE">     0</i>
   <i name="POTIM">      0.50000000</i>
   <i name="SMASS">     -3.00000000</i>
  </separator>
  <separator name="ionic md" >
   <i name="TEBEG">      0.00010000</i>
   <i name="TEEND">      0.00010000</i>
   <i type="int" name="NBLOCK">     1</i>
   <i type="int" name="KBLOCK">     1</i>
   <i type="int" name="NPACO">   256</i>
   <i name="APACO">     16.00000000</i>
  </separator>
  <separator name="symmetry" >
   <i type="int" name="ISYM">     2</i>
   <i name="SYMPREC">      0.00001000</i>
  </separator>
  <separator name="dos" >
   <i type="logical" name="LORBIT"> F  </i>
   <v name="RWIGS">     -1.00000000</v>
   <i type="int" name="NEDOS">   301</i>
   <i name="EMIN">     10.00000000</i>
   <i name="EMAX">    -10.00000000</i>
  </separator>
  <separator name="writing" >
   <i type="int" name="NWRITE">     2</i>
   <i type="logical" name="LWAVE"> F  </i>
   <i type="logical" name="LCHARG"> F  </i>
   <i type="logical" name="LPARD"> F  </i>
   <i type="logical" name="LVTOT"> F  </i>
   <i type="logical" name="LELF"> F  </i>
   <i type="logical" name="LOPTICS"> F  </i>
   <i name="STM">      0.00000000</i>
  </separator>
  <separator name="performance" >
   <i type="int" name="NPAR">     4</i>
   <i type="int" name="NSIM">     4</i>
   <i type="int" name="NBLK">   256</i>
   <i type="logical" name="LPLANE"> T  </i>
   <i type="logical" name="LCRITICAL_MEM"> F  </i>
   <i type="logical" name="LSCALAPACK"> F  </i>
   <i type="logical" name="LSCALU"> F  </i>
   <i type="logical" name="LASYNC"> F  </i>
  </separator>
  <separator name="miscellaneous" >
   <i type="int" name="IDIOT">     3</i>
   <i type="logical" name="LMUSIC"> F  </i>
   <v name="POMASS">     26.98200000</v>
   <i type="logical" name="LCORR"> T  </i>
  </separator>
  <i type="logical" name="LREAL_COMPAT"> F  </i>
  <i type="logical" name="GGA_COMPAT"> T  </i>
  <i type="logical" name="LBERRY"> F  </i>
  <i type="int" name="ICORELEVEL">     0</i>
  <i type="logical" name="LDAU"> F  </i>
  <i type="int" name="I_CONSTRAINED_M">     0</i>
 </parameters>
 <atominfo>
  <atoms>      32</atoms>
  <types>       1</types>
  <array name="atoms" >
   <dimension dim="1">ion</dimension>
   <field type="string">element</field>
   <field type="int">atomtype</field>
   <set>
    <rc><c>Al</c><c>   1</c></rc>
    <rc><c>Al</c><c>   1</c></rc>
    <rc><c>Al</c><c>   1</c></rc>
    <rc><c>Al</c><c>   1</c></rc>
    <rc><c>Al</c><c>   1</c></rc>
    <rc><c>Al</c><c>   1</c></rc>
    <rc><c>Al</c><c>   1</c></rc>
    <rc><c>Al</c><c>   1</c></rc>
    <rc><c>Al</c><c>   1</c></rc>
    <rc><c>Al</c><c>   1</c></rc>
    <rc><c>Al</c><c>   1</c></rc>
    <rc><c>Al</c><c>   1</c></rc>
    <rc><c>Al</c><c>   1</c></rc>
    <rc><c>Al</c><c>   1</c></rc>
    <rc><c>Al</c><c>   1</c></rc>
    <rc><c>Al</c><c>   1</c></rc>
    <rc><c>Al</c><c>   1</c></rc>
    <rc><c>Al</c><c>   1</c></rc>
    <rc><c>Al</c><c>   1</c></rc>
    <rc><c>Al</c><c>   1</c></rc>
    <rc><c>Al</c><c>   1</c></rc>
    <rc><c>Al</c><c>   1</c></rc>
    <rc><c>Al</c><c>   1</c></rc>
    <rc><c>Al</c><c>   1</c></rc>
    <rc><c>Al</c><c>   1</c></rc>
    <rc><c>Al</c><c>   1</c></rc>
    <rc><c>Al</c><c>   1</c></rc>
    <rc><c>Al</c><c>   1</c></rc>
    <rc><c>Al</c><c>   1</c></rc>
    <rc><c>Al</c><c>   1</c></rc>
    <rc><c>Al</c><c>   1</c></rc>
    <rc><c>Al</c><c>   1</c></rc>
   </set>
  </array>
  <array name="atomtypes" >
   <dimension dim="1">type</dimension>
   <field type="int">atomspertype</field>
   <field type="string">element</field>
   <field>mass</field>
   <field>valence</field>
   <field type="string">pseudopotential</field>
   <set>
    <rc><c>  32</c><c>Al</c><c>     26.98200000</c><c>      3.00000000</c><c> PAW_PBE Al 04Jan2001                   </c></rc>
   </set>
  </array>
 </atominfo>
 <structure name="initialpos" >
  <crystal>
   <varray name="basis" >
    <v>       8.23610499      0.00000000      0.00000000</v>
    <v>       0.00000000      8.23610499      0.00000000</v>
    <v>       0.00000000      0.00000000      8.23610499</v>
   </varray>
   <i name="volume">    558.68321432</i>
   <varray name="rec_basis" >
    <v>       0.12141662      0.00000000      0.00000000</v>
    <v>       0.00000000      0.12141662      0.00000000</v>
    <v>       0.00000000      0.00000000      0.12141662</v>
   </varray>
  </crystal>
  <varray name="positions" >
   <v>       0.25121417      0.25000000      0.00000000</v>
   <v>       0.75000000      0.25000000      0.00000000</v>
   <v>       0.25000000      0.75000000      0.00000000</v>
   <v>       0.75000000      0.75000000      0.00000000</v>
   <v>       0.25000000      0.25000000      0.50000000</v>
   <v>       0.75000000      0.25000000      0.50000000</v>
   <v>       0.25000000      0.75000000      0.50000000</v>
   <v>       0.75000000      0.75000000      0.50000000</v>
   <v>       0.25000000      0.00000000      0.25000000</v>
   <v>       0.75000000      0.00000000      0.25000000</v>
   <v>       0.25000000      0.50000000      0.25000000</v>
   <v>       0.75000000      0.50000000      0.25000000</v>
   <v>       0.25000000      0.00000000      0.75000000</v>
   <v>       0.75000000      0.00000000      0.75000000</v>
   <v>       0.25000000      0.50000000      0.75000000</v>
   <v>       0.75000000      0.50000000      0.75000000</v>
   <v>       0.00000000      0.25000000      0.25000000</v>
   <v>       0.50000000      0.25000000      0.25000000</v>
   <v>       0.00000000      0.75000000      0.25000000</v>
   <v>       0.50000000      0.75000000      0.25000000</v>
   <v>       0.00000000      0.25000000      0.75000000</v>
   <v>       0.50000000      0.25000000      0.75000000</v>
   <v>       0.00000000      0.75000000      0.75000000</v>
   <v>       0.50000000      0.75000000      0.75000000</v>
   <v>       0.00000000      0.00000000      0.00000000</v>
   <v>       0.50000000      0.00000000      0.00000000</v>
   <v>       0.00000000      0.50000000      0.00000000</v>
   <v>       0.50000000      0.50000000      0.00000000</v>
   <v>       0.00000000      0.00000000      0.50000000</v>
   <v>       0.50000000      0.00000000      0.50000000</v>
   <v>       0.00000000      0.50000000      0.50000000</v>
   <v>       0.50000000      0.50000000      0.50000000</v>
  </varray>
 </structure>
 <calculation>
  <scstep>
   <time name="dav">  180.99  180.97</time>
   <time name="total">  181.31  181.29</time>
   <energy>
    <i name="alphaZ">     -6.15630361</i>
    <i name="ewald">  -2308.62146778</i>
    <i name="hartreedc">     -4.03024973</i>
    <i name="XCdc">   -842.89020552</i>
    <i name="pawpsdc">   1137.73615723</i>
    <i name="pawaedc">   -115.16745734</i>
    <i name="eentropy">     -0.00032125</i>
    <i name="bandstr">    547.50111641</i>
    <i name="atom">   1713.22913220</i>
    <i name="e_fr_energy">    121.60040061</i>
    <i name="e_wo_entrp">    121.60072186</i>
    <i name="e_0_energy">    121.60056123</i>
   </energy>
  </scstep>
  <scstep>
   <time name="dav">  217.34  217.28</time>
   <time name="total">  217.36  217.30</time>
   <energy>
    <i name="e_fr_energy">   -106.14352506</i>
    <i name="e_wo_entrp">   -106.14313586</i>
    <i name="e_0_energy">   -106.14333046</i>
   </energy>
  </scstep>
  <scstep>
   <time name="dav">  227.16  227.10</time>
   <time name="total">  227.18  227.12</time>
   <energy>
    <i name="e_fr_energy">   -119.83777143</i>
    <i name="e_wo_entrp">   -119.83711965</i>
    <i name="e_0_energy">   -119.83744554</i>
   </energy>
  </scstep>
  <scstep>
   <time name="dav">  217.66  217.69</time>
   <time name="total">  217.69  217.71</time>
   <energy>
    <i name="e_fr_energy">   -120.14104424</i>
    <i name="e_wo_entrp">   -120.14036499</i>
    <i name="e_0_energy">   -120.14070462</i>
   </energy>
  </scstep>
  <scstep>
   <time name="dav">  221.90  221.85</time>
   <time name="total">  232.28  232.22</time>
   <energy>
    <i name="e_fr_energy">   -120.14519335</i>
    <i name="e_wo_entrp">   -120.14450493</i>
    <i name="e_0_energy">   -120.14484914</i>
   </energy>
  </scstep>
  <scstep>
   <time name="dav">  220.45  220.39</time>
   <time name="total">  231.55  231.49</time>
   <energy>
    <i name="e_fr_energy">   -119.74146670</i>
    <i name="e_wo_entrp">   -119.74069890</i>
    <i name="e_0_energy">   -119.74108280</i>
   </energy>
  </scstep>
  <scstep>
   <time name="dav">  213.48  213.43</time>
   <time name="total">  224.34  224.29</time>
   <energy>
    <i name="e_fr_energy">   -119.44777179</i>
    <i name="e_wo_entrp">   -119.44698228</i>
    <i name="e_0_energy">   -119.44737703</i>
   </energy>
  </scstep>
  <scstep>
   <time name="dav">  221.65  221.59</time>
   <time name="total">  232.27  232.21</time>
   <energy>
    <i name="e_fr_energy">   -119.44779299</i>
    <i name="e_wo_entrp">   -119.44700540</i>
    <i name="e_0_energy">   -119.44739919</i>
   </energy>
  </scstep>
  <scstep>
   <time name="dav">  217.78  217.72</time>
   <time name="total">  228.36  228.30</time>
   <energy>
    <i name="e_fr_energy">   -119.44781435</i>
    <i name="e_wo_entrp">   -119.44702804</i>
    <i name="e_0_energy">   -119.44742119</i>
   </energy>
  </scstep>
  <scstep>
   <time name="dav">  219.53  219.47</time>
   <time name="total">  230.37  230.31</time>
   <energy>
    <i name="e_fr_energy">   -119.44781429</i>
    <i name="e_wo_entrp">   -119.44702813</i>
    <i name="e_0_energy">   -119.44742121</i>
   </energy>
  </scstep>
  <scstep>
   <time name="dav">  216.43  216.37</time>
   <time name="total">  227.42  227.36</time>
   <energy>
    <i name="e_fr_energy">   -119.44781104</i>
    <i name="e_wo_entrp">   -119.44702485</i>
    <i name="e_0_energy">   -119.44741795</i>
   </energy>
  </scstep>
  <scstep>
   <time name="dav">  167.74  167.70</time>
   <time name="total">  178.29  178.24</time>
   <energy>
    <i name="e_fr_energy">   -119.44780990</i>
    <i name="e_wo_entrp">   -119.44702374</i>
    <i name="e_0_energy">   -119.44741682</i>
   </energy>
  </scstep>
  <scstep>
   <time name="dav">  136.52  136.48</time>
   <time name="total">  145.29  145.25</time>
   <energy>
    <i name="e_fr_energy">   -119.44780977</i>
    <i name="e_wo_entrp">   -119.44702361</i>
    <i name="e_0_energy">   -119.44741669</i>
   </energy>
  </scstep>
  <scstep>
   <time name="dav">  126.39  126.35</time>
   <time name="total">  126.73  126.69</time>
   <energy>
    <i name="alphaZ">     -6.15630361</i>
    <i name="ewald">  -2308.62146778</i>
    <i name="hartreedc">     -3.17691501</i>
    <i name="XCdc">   -839.78772868</i>
    <i name="pawpsdc">   1136.30937234</i>
    <i name="pawaedc">   -113.87818440</i>
    <i name="eentropy">     -0.00078616</i>
    <i name="bandstr">    302.63507133</i>
    <i name="atom">   1713.22913220</i>
    <i name="e_fr_energy">   -119.44780977</i>
    <i name="e_wo_entrp">   -119.44702361</i>
    <i name="e_0_energy">   -119.44741669</i>
   </energy>
  </scstep>
  <structure>
   <crystal>
    <varray name="basis" >
     <v>       8.23610499      0.00000000      0.00000000</v>
     <v>       0.00000000      8.23610499      0.00000000</v>
     <v>       0.00000000      0.00000000      8.23610499</v>
    </varray>
    <i name="volume">    558.68321432</i>
    <varray name="rec_basis" >
     <v>       0.12141662      0.00000000      0.00000000</v>
     <v>       0.00000000      0.12141662      0.00000000</v>
     <v>       0.00000000      0.00000000      0.12141662</v>
    </varray>
   </crystal>
   <varray name="positions" >
    <v>       0.25121417      0.25000000      0.00000000</v>
    <v>       0.75000000      0.25000000      0.00000000</v>
    <v>       0.25000000      0.75000000      0.00000000</v>
    <v>       0.75000000      0.75000000      0.00000000</v>
    <v>       0.25000000      0.25000000      0.50000000</v>
    <v>       0.75000000      0.25000000      0.50000000</v>
    <v>       0.25000000      0.75000000      0.50000000</v>
    <v>       0.75000000      0.75000000      0.50000000</v>
    <v>       0.25000000      0.00000000      0.25000000</v>
    <v>       0.75000000      0.00000000      0.25000000</v>
    <v>       0.25000000      0.50000000      0.25000000</v>
    <v>       0.75000000      0.50000000      0.25000000</v>
    <v>       0.25000000      0.00000000      0.75000000</v>
    <v>       0.75000000      0.00000000      0.75000000</v>
    <v>       0.25000000      0.50000000      0.75000000</v>
    <v>       0.75000000      0.50000000      0.75000000</v>
    <v>       0.00000000      0.25000000      0.25000000</v>
    <v>       0.50000000      0.25000000      0.25000000</v>
    <v>       0.00000000      0.75000000      0.25000000</v>
    <v>       0.50000000      0.75000000      0.25000000</v>
    <v>       0.00000000      0.25000000      0.75000000</v>
    <v>       0.50000000      0.25000000      0.75000000</v>
    <v>       0.00000000      0.75000000      0.75000000</v>
    <v>       0.50000000      0.75000000      0.75000000</v>
    <v>       0.00000000      0.00000000      0.00000000</v>
    <v>       0.50000000      0.00000000      0.00000000</v>
    <v>       0.00000000      0.50000000      0.00000000</v>
    <v>       0.50000000      0.50000000      0.00000000</v>
    <v>       0.00000000      0.00000000      0.50000000</v>
    <v>       0.50000000      0.00000000      0.50000000</v>
    <v>       0.00000000      0.50000000      0.50000000</v>
    <v>       0.50000000      0.50000000      0.50000000</v>
   </varray>
  </structure>
  <varray name="forces" >
   <v>      -0.03610495     -0.00000000      0.00000000</v>
   <v>       0.00221343      0.00000000      0.00000000</v>
   <v>      -0.00012146     -0.00000000     -0.00000000</v>
   <v>       0.00059330      0.00000000      0.00000000</v>
   <v>      -0.00012146     -0.00000000      0.00000000</v>
   <v>       0.00059330     -0.00000000      0.00000000</v>
   <v>       0.00005337      0.00000000      0.00000000</v>
   <v>      -0.00085992     -0.00000000      0.00000000</v>
   <v>      -0.00159204      0.00001353     -0.00001353</v>
   <v>      -0.00059243      0.00000180     -0.00000180</v>
   <v>      -0.00159204     -0.00001353     -0.00001353</v>
   <v>      -0.00059243     -0.00000180     -0.00000180</v>
   <v>      -0.00159204      0.00001353      0.00001353</v>
   <v>      -0.00059243      0.00000180      0.00000180</v>
   <v>      -0.00159204     -0.00001353      0.00001353</v>
   <v>      -0.00059243     -0.00000180      0.00000180</v>
   <v>       0.00508411      0.00000000     -0.00519102</v>
   <v>       0.00521125      0.00000000      0.00537215</v>
   <v>       0.00016400      0.00000000      0.00013659</v>
   <v>       0.00016372      0.00000000     -0.00014229</v>
   <v>       0.00508411     -0.00000000      0.00519102</v>
   <v>       0.00521125      0.00000000     -0.00537215</v>
   <v>       0.00016400     -0.00000000     -0.00013659</v>
   <v>       0.00016372     -0.00000000      0.00014229</v>
   <v>       0.00508411      0.00519102     -0.00000000</v>
   <v>       0.00521125     -0.00537215     -0.00000000</v>
   <v>       0.00508411     -0.00519102     -0.00000000</v>
   <v>       0.00521125      0.00537215     -0.00000000</v>
   <v>       0.00016400     -0.00013659     -0.00000000</v>
   <v>       0.00016372      0.00014229     -0.00000000</v>
   <v>       0.00016400      0.00013659      0.00000000</v>
   <v>       0.00016372     -0.00014229     -0.00000000</v>
  </varray>
  <varray name="stress" >
   <v>     -39.02894153     -0.00000000      0.00000000</v>
   <v>       0.00000000    -39.03116291      0.00000000</v>
   <v>       0.00000000      0.00000000    -39.03116291</v>
  </varray>
  <energy>
   <i name="e_fr_energy">   -119.44780977</i>
   <i name="e_wo_entrp">   -119.44741669</i>
   <i name="e_0_energy">     -0.00078616</i>
  </energy>
  <eigenvalues>
   <array>
    <dimension dim="1">band</dimension>
    <dimension dim="2">kpoint</dimension>
    <dimension dim="3">spin</dimension>
    <field>eigene</field>
    <field>occ</field>
    <set>
     <set comment="spin 1">
      <set comment="kpoint 1">
       <r>  -3.3266  1.0000</r>
       <r>  -1.1633  1.0000</r>
       <r>  -1.1597  1.0000</r>
       <r>  -1.1597  1.0000</r>
       <r>  -1.1597  1.0000</r>
       <r>  -1.1597  1.0000</r>
       <r>  -1.1561  1.0000</r>
       <r>   0.9704  1.0000</r>
       <r>   0.9748  1.0000</r>
       <r>   0.9748  1.0000</r>
       <r>   0.9764  1.0000</r>
       <r>   0.9765  1.0000</r>
       <r>   0.9765  1.0000</r>
       <r>   0.9765  1.0000</r>
       <r>   0.9765  1.0000</r>
       <r>   0.9767  1.0000</r>
       <r>   0.9783  1.0000</r>
       <r>   0.9783  1.0000</r>
       <r>   0.9827  1.0000</r>
       <r>   3.0535  1.0000</r>
       <r>   3.0536  1.0000</r>
       <r>   3.0536  1.0000</r>
       <r>   3.0536  1.0000</r>
       <r>   3.1175  1.0000</r>
       <r>   3.1175  1.0000</r>
       <r>   3.1175  1.0000</r>
       <r>   3.1176  1.0000</r>
       <r>   4.6360  1.0000</r>
       <r>   4.6360  1.0000</r>
       <r>   4.6360  1.0000</r>
       <r>   5.8262  1.0000</r>
       <r>   5.8262  1.0000</r>
       <r>   5.8262  1.0000</r>
       <r>   6.6446  1.0000</r>
       <r>   6.6446  1.0000</r>
       <r>   6.6488  1.0000</r>
       <r>   6.6488  1.0000</r>
       <r>   6.6489  1.0000</r>
       <r>   6.6489  1.0000</r>
       <r>   6.6489  1.0000</r>
       <r>   6.6490  1.0000</r>
       <r>   6.6490  1.0000</r>
       <r>   6.6490  1.0000</r>
       <r>   6.6532  1.0000</r>
       <r>   6.6532  1.0000</r>
       <r>   7.6859  0.0000</r>
       <r>   7.6899  0.0000</r>
       <r>   7.6899  0.0000</r>
       <r>   7.6899  0.0000</r>
       <r>   7.6899  0.0000</r>
       <r>   7.6939  0.0000</r>
       <r>   8.2226  0.0000</r>
       <r>   8.2235  0.0000</r>
       <r>   8.2235  0.0000</r>
       <r>   8.2235  0.0000</r>
       <r>   8.2236  0.0000</r>
       <r>   8.2245  0.0000</r>
       <r>   8.6617  0.0000</r>
       <r>   8.6619  0.0000</r>
       <r>   8.6638  0.0000</r>
       <r>   8.6656  0.0000</r>
       <r>   8.6657  0.0000</r>
       <r>   8.6657  0.0000</r>
       <r>   8.6658  0.0000</r>
       <r>   8.6658  0.0000</r>
       <r>   8.6671  0.0000</r>
       <r>   8.6692  0.0000</r>
       <r>   8.6697  0.0000</r>
      </set>
      <set comment="kpoint 2">
       <r>  -3.3114  1.0000</r>
       <r>  -1.5036  1.0000</r>
       <r>  -1.1448  1.0000</r>
       <r>  -1.1447  1.0000</r>
       <r>  -1.1447  1.0000</r>
       <r>  -1.1447  1.0000</r>
       <r>  -0.7867  1.0000</r>
       <r>   0.6373  1.0000</r>
       <r>   0.6374  1.0000</r>
       <r>   0.6374  1.0000</r>
       <r>   0.6374  1.0000</r>
       <r>   0.9913  1.0000</r>
       <r>   0.9913  1.0000</r>
       <r>   0.9913  1.0000</r>
       <r>   0.9913  1.0000</r>
       <r>   1.3443  1.0000</r>
       <r>   1.3443  1.0000</r>
       <r>   1.3443  1.0000</r>
       <r>   1.3443  1.0000</r>
       <r>   2.7491  1.0000</r>
       <r>   2.7491  1.0000</r>
       <r>   2.7491  1.0000</r>
       <r>   2.7491  1.0000</r>
       <r>   3.4503  1.0000</r>
       <r>   3.4503  1.0000</r>
       <r>   3.4503  1.0000</r>
       <r>   3.4503  1.0000</r>
       <r>   4.3288  1.0000</r>
       <r>   4.6500  1.0000</r>
       <r>   4.6500  1.0000</r>
       <r>   5.8410  1.0000</r>
       <r>   5.8411  1.0000</r>
       <r>   6.1599  1.0000</r>
       <r>   6.3269  1.0000</r>
       <r>   6.3269  1.0000</r>
       <r>   6.3603  1.0000</r>
       <r>   6.3604  1.0000</r>
       <r>   6.3604  1.0000</r>
       <r>   6.3604  1.0000</r>
       <r>   6.6629  1.0000</r>
       <r>   6.6629  1.0000</r>
       <r>   6.6629  1.0000</r>
       <r>   6.6629  1.0000</r>
       <r>   6.9990  1.0000</r>
       <r>   6.9990  1.0000</r>
       <r>   7.5328  0.0000</r>
       <r>   7.5328  0.0000</r>
       <r>   7.8358  0.0000</r>
       <r>   7.8358  0.0000</r>
       <r>   7.8358  0.0000</r>
       <r>   7.8358  0.0000</r>
       <r>   8.3433  0.0000</r>
       <r>   8.3433  0.0000</r>
       <r>   8.3434  0.0000</r>
       <r>   8.3434  0.0000</r>
       <r>   8.3942  0.0000</r>
       <r>   8.3944  0.0000</r>
       <r>   8.3944  0.0000</r>
       <r>   8.3944  0.0000</r>
       <r>   8.4059  0.0000</r>
       <r>   8.4061  0.0000</r>
       <r>   8.4066  0.0000</r>
       <r>   8.4066  0.0000</r>
       <r>   8.4074  0.0000</r>
       <r>   8.4079  0.0000</r>
       <r>   9.0161  0.0000</r>
       <r>   9.0161  0.0000</r>
       <r>   9.0162  0.0000</r>
      </set>
      <set comment="kpoint 3">
       <r>  -3.2660  1.0000</r>
       <r>  -1.8184  1.0000</r>
       <r>  -1.0999  1.0000</r>
       <r>  -1.0999  1.0000</r>
       <r>  -1.0999  1.0000</r>
       <r>  -1.0999  1.0000</r>
       <r>  -0.3852  1.0000</r>
       <r>   0.3270  1.0000</r>
       <r>   0.3270  1.0000</r>
       <r>   0.3270  1.0000</r>
       <r>   0.3270  1.0000</r>
       <r>   1.0355  1.0000</r>
       <r>   1.0355  1.0000</r>
       <r>   1.0355  1.0000</r>
       <r>   1.0355  1.0000</r>
       <r>   1.7403  1.0000</r>
       <r>   1.7403  1.0000</r>
       <r>   1.7403  1.0000</r>
       <r>   1.7403  1.0000</r>
       <r>   2.4434  1.0000</r>
       <r>   2.4434  1.0000</r>
       <r>   2.4434  1.0000</r>
       <r>   2.4434  1.0000</r>
       <r>   3.7709  1.0000</r>
       <r>   3.8407  1.0000</r>
       <r>   3.8407  1.0000</r>
       <r>   3.8407  1.0000</r>
       <r>   3.8408  1.0000</r>
       <r>   4.6918  1.0000</r>
       <r>   4.6918  1.0000</r>
       <r>   5.8235  1.0000</r>
       <r>   5.8236  1.0000</r>
       <r>   5.8236  1.0000</r>
       <r>   5.8236  1.0000</r>
       <r>   5.8856  1.0000</r>
       <r>   5.8856  1.0000</r>
       <r>   6.0332  1.0000</r>
       <r>   6.0332  1.0000</r>
       <r>   6.7049  1.0000</r>
       <r>   6.7049  1.0000</r>
       <r>   6.7049  1.0000</r>
       <r>   6.7049  1.0000</r>
       <r>   6.7972  1.0000</r>
       <r>   7.2680  1.0000</r>
       <r>   7.2680  1.0000</r>
       <r>   7.3773  1.0000</r>
       <r>   7.3773  1.0000</r>
       <r>   7.8722  0.0000</r>
       <r>   7.8723  0.0000</r>
       <r>   7.8723  0.0000</r>
       <r>   7.8723  0.0000</r>
       <r>   7.9648  0.0000</r>
       <r>   7.9648  0.0000</r>
       <r>   7.9648  0.0000</r>
       <r>   7.9649  0.0000</r>
       <r>   8.0491  0.0000</r>
       <r>   8.0492  0.0000</r>
       <r>   8.0492  0.0000</r>
       <r>   8.0492  0.0000</r>
       <r>   8.7503  0.0000</r>
       <r>   8.7503  0.0000</r>
       <r>   8.9352  0.0000</r>
       <r>   8.9352  0.0000</r>
       <r>   8.9352  0.0000</r>
       <r>   8.9352  0.0000</r>
       <r>   9.3862  0.0000</r>
       <r>   9.3879  0.0000</r>
       <r>   9.3940  0.0000</r>
      </set>
      <set comment="kpoint 4">
       <r>  -3.1902  1.0000</r>
       <r>  -2.1038  1.0000</r>
       <r>  -1.0253  1.0000</r>
       <r>  -1.0253  1.0000</r>
       <r>  -1.0253  1.0000</r>
       <r>  -1.0253  1.0000</r>
       <r>   0.0427  1.0000</r>
       <r>   0.0457  1.0000</r>
       <r>   0.0457  1.0000</r>
       <r>   0.0457  1.0000</r>
       <r>   0.0478  1.0000</r>
       <r>   1.1091  1.0000</r>
       <r>   1.1091  1.0000</r>
       <r>   1.1091  1.0000</r>
       <r>   1.1091  1.0000</r>
       <r>   2.1616  1.0000</r>
       <r>   2.1635  1.0000</r>
       <r>   2.1635  1.0000</r>
       <r>   2.1642  1.0000</r>
       <r>   2.1658  1.0000</r>
       <r>   2.1665  1.0000</r>
       <r>   2.1665  1.0000</r>
       <r>   2.1684  1.0000</r>
       <r>   3.1809  1.0000</r>
       <r>   4.2594  1.0000</r>
       <r>   4.2594  1.0000</r>
       <r>   4.2594  1.0000</r>
       <r>   4.2594  1.0000</r>
       <r>   4.7616  1.0000</r>
       <r>   4.7616  1.0000</r>
       <r>   5.2488  1.0000</r>
       <r>   5.2488  1.0000</r>
       <r>   5.2488  1.0000</r>
       <r>   5.2488  1.0000</r>
       <r>   5.7675  1.0000</r>
       <r>   5.7675  1.0000</r>
       <r>   5.9596  1.0000</r>
       <r>   5.9596  1.0000</r>
       <r>   6.7748  1.0000</r>
       <r>   6.7748  1.0000</r>
       <r>   6.7749  1.0000</r>
       <r>   6.7749  1.0000</r>
       <r>   7.0055  1.0000</r>
       <r>   7.0055  1.0000</r>
       <r>   7.3067  1.0000</r>
       <r>   7.3067  1.0000</r>
       <r>   7.3067  1.0000</r>
       <r>   7.3067  1.0000</r>
       <r>   7.5196  0.0000</r>
       <r>   7.7811  0.0000</r>
       <r>   7.7811  0.0000</r>
       <r>   7.7830  0.0000</r>
       <r>   7.7830  0.0000</r>
       <r>   7.7857  0.0000</r>
       <r>   7.7857  0.0000</r>
       <r>   8.0618  0.0000</r>
       <r>   8.0618  0.0000</r>
       <r>   8.0618  0.0000</r>
       <r>   8.0618  0.0000</r>
       <r>   9.1145  0.0000</r>
       <r>   9.1146  0.0000</r>
       <r>   9.1146  0.0000</r>
       <r>   9.1146  0.0000</r>
       <r>   9.1433  0.0000</r>
       <r>   9.1433  0.0000</r>
       <r>   9.6142  0.0000</r>
       <r>   9.6142  0.0000</r>
       <r>   9.6143  0.0000</r>
      </set>
      <set comment="kpoint 5">
       <r>  -3.0842  1.0000</r>
       <r>  -2.3596  1.0000</r>
       <r>  -0.9209  1.0000</r>
       <r>  -0.9208  1.0000</r>
       <r>  -0.9208  1.0000</r>
       <r>  -0.9208  1.0000</r>
       <r>  -0.2066  1.0000</r>
       <r>  -0.2066  1.0000</r>
       <r>  -0.2066  1.0000</r>
       <r>  -0.2066  1.0000</r>
       <r>   0.5027  1.0000</r>
       <r>   1.2121  1.0000</r>
       <r>   1.2121  1.0000</r>
       <r>   1.2121  1.0000</r>
       <r>   1.2122  1.0000</r>
       <r>   1.9170  1.0000</r>
       <r>   1.9170  1.0000</r>
       <r>   1.9170  1.0000</r>
       <r>   1.9170  1.0000</r>
       <r>   2.5996  1.0000</r>
       <r>   2.6156  1.0000</r>
       <r>   2.6156  1.0000</r>
       <r>   2.6156  1.0000</r>
       <r>   2.6157  1.0000</r>
       <r>   4.6793  1.0000</r>
       <r>   4.6793  1.0000</r>
       <r>   4.6794  1.0000</r>
       <r>   4.6794  1.0000</r>
       <r>   4.7054  1.0000</r>
       <r>   4.7054  1.0000</r>
       <r>   4.7054  1.0000</r>
       <r>   4.7054  1.0000</r>
       <r>   4.8593  1.0000</r>
       <r>   4.8593  1.0000</r>
       <r>   5.5298  1.0000</r>
       <r>   5.5298  1.0000</r>
       <r>   6.0631  1.0000</r>
       <r>   6.0631  1.0000</r>
       <r>   6.7445  1.0000</r>
       <r>   6.7447  1.0000</r>
       <r>   6.7447  1.0000</r>
       <r>   6.7447  1.0000</r>
       <r>   6.7634  1.0000</r>
       <r>   6.7636  1.0000</r>
       <r>   6.8728  1.0000</r>
       <r>   6.8728  1.0000</r>
       <r>   6.8729  1.0000</r>
       <r>   6.8729  1.0000</r>
       <r>   7.5449  0.0000</r>
       <r>   7.5449  0.0000</r>
       <r>   7.5449  0.0000</r>
       <r>   7.5449  0.0000</r>
       <r>   8.1722  0.0000</r>
       <r>   8.1722  0.0000</r>
       <r>   8.1722  0.0000</r>
       <r>   8.1722  0.0000</r>
       <r>   8.2185  0.0000</r>
       <r>   8.2185  0.0000</r>
       <r>   8.2860  0.0000</r>
       <r>   8.8714  0.0000</r>
       <r>   8.8714  0.0000</r>
       <r>   8.8714  0.0000</r>
       <r>   8.8714  0.0000</r>
       <r>   9.5663  0.0000</r>
       <r>   9.5663  0.0000</r>
       <r>  10.2358  0.0000</r>
       <r>  10.2371  0.0000</r>
       <r>  10.2390  0.0000</r>
      </set>
      <set comment="kpoint 6">
       <r>  -2.9481  1.0000</r>
       <r>  -2.5857  1.0000</r>
       <r>  -0.7867  1.0000</r>
       <r>  -0.7867  1.0000</r>
       <r>  -0.7867  1.0000</r>
       <r>  -0.7867  1.0000</r>
       <r>  -0.4294  1.0000</r>
       <r>  -0.4294  1.0000</r>
       <r>  -0.4294  1.0000</r>
       <r>  -0.4294  1.0000</r>
       <r>   0.9881  1.0000</r>
       <r>   1.3445  1.0000</r>
       <r>   1.3445  1.0000</r>
       <r>   1.3445  1.0000</r>
       <r>   1.3445  1.0000</r>
       <r>   1.6971  1.0000</r>
       <r>   1.6971  1.0000</r>
       <r>   1.6971  1.0000</r>
       <r>   1.6971  1.0000</r>
       <r>   2.0381  1.0000</r>
       <r>   3.0940  1.0000</r>
       <r>   3.0940  1.0000</r>
       <r>   3.0940  1.0000</r>
       <r>   3.0940  1.0000</r>
       <r>   4.1277  1.0000</r>
       <r>   4.1277  1.0000</r>
       <r>   4.1277  1.0000</r>
       <r>   4.1277  1.0000</r>
       <r>   4.9850  1.0000</r>
       <r>   4.9850  1.0000</r>
       <r>   5.1781  1.0000</r>
       <r>   5.1781  1.0000</r>
       <r>   5.1781  1.0000</r>
       <r>   5.1781  1.0000</r>
       <r>   5.3202  1.0000</r>
       <r>   5.3202  1.0000</r>
       <r>   6.1950  1.0000</r>
       <r>   6.1957  1.0000</r>
       <r>   6.1996  1.0000</r>
       <r>   6.1996  1.0000</r>
       <r>   6.1996  1.0000</r>
       <r>   6.2003  1.0000</r>
       <r>   6.5467  1.0000</r>
       <r>   6.5467  1.0000</r>
       <r>   6.9988  1.0000</r>
       <r>   6.9988  1.0000</r>
       <r>   6.9988  1.0000</r>
       <r>   6.9988  1.0000</r>
       <r>   7.3348  1.0000</r>
       <r>   7.3348  1.0000</r>
       <r>   7.3348  1.0000</r>
       <r>   7.3348  1.0000</r>
       <r>   8.3065  0.0000</r>
       <r>   8.3065  0.0000</r>
       <r>   8.3065  0.0000</r>
       <r>   8.3065  0.0000</r>
       <r>   8.6556  0.0000</r>
       <r>   8.6556  0.0000</r>
       <r>   8.6557  0.0000</r>
       <r>   8.6557  0.0000</r>
       <r>   8.6815  0.0000</r>
       <r>   8.6815  0.0000</r>
       <r>   9.0854  0.0000</r>
       <r>   9.6922  0.0000</r>
       <r>   9.6922  0.0000</r>
       <r>  10.0128  0.0000</r>
       <r>  10.0128  0.0000</r>
       <r>  10.7007  0.0000</r>
      </set>
      <set comment="kpoint 7">
       <r>  -2.7833  1.0000</r>
       <r>  -2.7805  1.0000</r>
       <r>  -0.6267  1.0000</r>
       <r>  -0.6236  1.0000</r>
       <r>  -0.6236  1.0000</r>
       <r>  -0.6229  1.0000</r>
       <r>  -0.6227  1.0000</r>
       <r>  -0.6220  1.0000</r>
       <r>  -0.6220  1.0000</r>
       <r>  -0.6190  1.0000</r>
       <r>   1.4980  1.0000</r>
       <r>   1.5004  1.0000</r>
       <r>   1.5047  1.0000</r>
       <r>   1.5050  1.0000</r>
       <r>   1.5050  1.0000</r>
       <r>   1.5058  1.0000</r>
       <r>   1.5066  1.0000</r>
       <r>   1.5074  1.0000</r>
       <r>   1.5074  1.0000</r>
       <r>   1.5098  1.0000</r>
       <r>   3.5974  1.0000</r>
       <r>   3.5977  1.0000</r>
       <r>   3.5977  1.0000</r>
       <r>   3.5983  1.0000</r>
       <r>   3.5986  1.0000</r>
       <r>   3.5992  1.0000</r>
       <r>   3.5992  1.0000</r>
       <r>   3.5995  1.0000</r>
       <r>   5.1371  1.0000</r>
       <r>   5.1371  1.0000</r>
       <r>   5.1401  1.0000</r>
       <r>   5.1401  1.0000</r>
       <r>   5.6755  1.0000</r>
       <r>   5.6755  1.0000</r>
       <r>   5.6762  1.0000</r>
       <r>   5.6764  1.0000</r>
       <r>   5.6769  1.0000</r>
       <r>   5.6771  1.0000</r>
       <r>   5.6777  1.0000</r>
       <r>   5.6777  1.0000</r>
       <r>   6.3553  1.0000</r>
       <r>   6.3562  1.0000</r>
       <r>   6.3580  1.0000</r>
       <r>   6.3589  1.0000</r>
       <r>   7.1505  1.0000</r>
       <r>   7.1505  1.0000</r>
       <r>   7.1515  1.0000</r>
       <r>   7.1527  1.0000</r>
       <r>   7.1529  1.0000</r>
       <r>   7.1541  1.0000</r>
       <r>   7.1551  1.0000</r>
       <r>   7.1551  1.0000</r>
       <r>   8.4652  0.0000</r>
       <r>   8.4663  0.0000</r>
       <r>   8.4663  0.0000</r>
       <r>   8.4664  0.0000</r>
       <r>   8.4684  0.0000</r>
       <r>   8.4685  0.0000</r>
       <r>   8.4685  0.0000</r>
       <r>   8.4696  0.0000</r>
       <r>   9.1716  0.0000</r>
       <r>   9.1716  0.0000</r>
       <r>   9.1738  0.0000</r>
       <r>   9.1738  0.0000</r>
       <r>   9.9129  0.0000</r>
       <r>   9.9144  0.0000</r>
       <r>  10.4771  0.0000</r>
       <r>  10.4784  0.0000</r>
      </set>
      <set comment="kpoint 8">
       <r>  -3.3114  1.0000</r>
       <r>  -1.5036  1.0000</r>
       <r>  -1.1475  1.0000</r>
       <r>  -1.1447  1.0000</r>
       <r>  -1.1447  1.0000</r>
       <r>  -1.1419  1.0000</r>
       <r>  -0.7868  1.0000</r>
       <r>   0.6346  1.0000</r>
       <r>   0.6374  1.0000</r>
       <r>   0.6374  1.0000</r>
       <r>   0.6402  1.0000</r>
       <r>   0.9891  1.0000</r>
       <r>   0.9902  1.0000</r>
       <r>   0.9924  1.0000</r>
       <r>   0.9934  1.0000</r>
       <r>   1.3415  1.0000</r>
       <r>   1.3443  1.0000</r>
       <r>   1.3443  1.0000</r>
       <r>   1.3471  1.0000</r>
       <r>   2.7470  1.0000</r>
       <r>   2.7480  1.0000</r>
       <r>   2.7502  1.0000</r>
       <r>   2.7513  1.0000</r>
       <r>   3.4481  1.0000</r>
       <r>   3.4491  1.0000</r>
       <r>   3.4514  1.0000</r>
       <r>   3.4524  1.0000</r>
       <r>   4.3288  1.0000</r>
       <r>   4.6500  1.0000</r>
       <r>   4.6500  1.0000</r>
       <r>   5.8410  1.0000</r>
       <r>   5.8411  1.0000</r>
       <r>   6.1599  1.0000</r>
       <r>   6.3268  1.0000</r>
       <r>   6.3270  1.0000</r>
       <r>   6.3573  1.0000</r>
       <r>   6.3603  1.0000</r>
       <r>   6.3603  1.0000</r>
       <r>   6.3635  1.0000</r>
       <r>   6.6603  1.0000</r>
       <r>   6.6629  1.0000</r>
       <r>   6.6629  1.0000</r>
       <r>   6.6655  1.0000</r>
       <r>   6.9990  1.0000</r>
       <r>   6.9990  1.0000</r>
       <r>   7.5328  0.0000</r>
       <r>   7.5328  0.0000</r>
       <r>   7.8332  0.0000</r>
       <r>   7.8358  0.0000</r>
       <r>   7.8358  0.0000</r>
       <r>   7.8383  0.0000</r>
       <r>   8.3407  0.0000</r>
       <r>   8.3433  0.0000</r>
       <r>   8.3434  0.0000</r>
       <r>   8.3460  0.0000</r>
       <r>   8.3917  0.0000</r>
       <r>   8.3934  0.0000</r>
       <r>   8.3955  0.0000</r>
       <r>   8.3970  0.0000</r>
       <r>   8.4052  0.0000</r>
       <r>   8.4066  0.0000</r>
       <r>   8.4066  0.0000</r>
       <r>   8.4069  0.0000</r>
       <r>   8.4070  0.0000</r>
       <r>   8.4081  0.0000</r>
       <r>   9.0141  0.0000</r>
       <r>   9.0161  0.0000</r>
       <r>   9.0179  0.0000</r>
      </set>
      <set comment="kpoint 9">
       <r>  -3.2963  1.0000</r>
       <r>  -1.4898  1.0000</r>
       <r>  -1.4875  1.0000</r>
       <r>  -1.1298  1.0000</r>
       <r>  -1.1298  1.0000</r>
       <r>  -0.7730  1.0000</r>
       <r>  -0.7707  1.0000</r>
       <r>   0.2975  1.0000</r>
       <r>   0.6505  1.0000</r>
       <r>   0.6515  1.0000</r>
       <r>   0.6528  1.0000</r>
       <r>   0.6537  1.0000</r>
       <r>   1.0054  1.0000</r>
       <r>   1.0064  1.0000</r>
       <r>   1.3574  1.0000</r>
       <r>   1.3583  1.0000</r>
       <r>   1.3596  1.0000</r>
       <r>   1.3606  1.0000</r>
       <r>   1.7111  1.0000</r>
       <r>   2.4143  1.0000</r>
       <r>   2.4143  1.0000</r>
       <r>   3.0818  1.0000</r>
       <r>   3.0818  1.0000</r>
       <r>   3.1473  1.0000</r>
       <r>   3.1473  1.0000</r>
       <r>   3.8119  1.0000</r>
       <r>   3.8120  1.0000</r>
       <r>   4.3426  1.0000</r>
       <r>   4.3434  1.0000</r>
       <r>   4.6639  1.0000</r>
       <r>   5.8559  1.0000</r>
       <r>   6.0364  1.0000</r>
       <r>   6.0386  1.0000</r>
       <r>   6.1741  1.0000</r>
       <r>   6.1749  1.0000</r>
       <r>   6.3387  1.0000</r>
       <r>   6.3396  1.0000</r>
       <r>   6.3403  1.0000</r>
       <r>   6.3425  1.0000</r>
       <r>   6.4128  1.0000</r>
       <r>   6.4128  1.0000</r>
       <r>   6.7075  1.0000</r>
       <r>   6.7091  1.0000</r>
       <r>   7.0117  1.0000</r>
       <r>   7.0143  1.0000</r>
       <r>   7.5892  0.0000</r>
       <r>   7.5913  0.0000</r>
       <r>   7.8163  0.0000</r>
       <r>   7.8186  0.0000</r>
       <r>   8.0210  0.0000</r>
       <r>   8.0557  0.0000</r>
       <r>   8.0558  0.0000</r>
       <r>   8.0694  0.0000</r>
       <r>   8.0703  0.0000</r>
       <r>   8.0716  0.0000</r>
       <r>   8.0726  0.0000</r>
       <r>   8.4518  0.0000</r>
       <r>   8.4526  0.0000</r>
       <r>   8.5118  0.0000</r>
       <r>   8.5118  0.0000</r>
       <r>   8.6795  0.0000</r>
       <r>   8.6812  0.0000</r>
       <r>   8.6929  0.0000</r>
       <r>   8.6947  0.0000</r>
       <r>   8.7446  0.0000</r>
       <r>   8.7456  0.0000</r>
       <r>   8.7459  0.0000</r>
       <r>   8.7469  0.0000</r>
      </set>
      <set comment="kpoint 10">
       <r>  -3.2508  1.0000</r>
       <r>  -1.8034  1.0000</r>
       <r>  -1.4438  1.0000</r>
       <r>  -1.0850  1.0000</r>
       <r>  -1.0850  1.0000</r>
       <r>  -0.7272  1.0000</r>
       <r>  -0.3703  1.0000</r>
       <r>  -0.0136  1.0000</r>
       <r>   0.3418  1.0000</r>
       <r>   0.3418  1.0000</r>
       <r>   0.6957  1.0000</r>
       <r>   0.6964  1.0000</r>
       <r>   0.6970  1.0000</r>
       <r>   1.4022  1.0000</r>
       <r>   1.4030  1.0000</r>
       <r>   1.4036  1.0000</r>
       <r>   1.7549  1.0000</r>
       <r>   1.7549  1.0000</r>
       <r>   2.1059  1.0000</r>
       <r>   2.1074  1.0000</r>
       <r>   2.1076  1.0000</r>
       <r>   2.8071  1.0000</r>
       <r>   2.8071  1.0000</r>
       <r>   3.5081  1.0000</r>
       <r>   3.5081  1.0000</r>
       <r>   3.7852  1.0000</r>
       <r>   4.2021  1.0000</r>
       <r>   4.2021  1.0000</r>
       <r>   4.3854  1.0000</r>
       <r>   4.7058  1.0000</r>
       <r>   5.4980  1.0000</r>
       <r>   5.7419  1.0000</r>
       <r>   5.8358  1.0000</r>
       <r>   5.8358  1.0000</r>
       <r>   5.9004  1.0000</r>
       <r>   6.0472  1.0000</r>
       <r>   6.1753  1.0000</r>
       <r>   6.2184  1.0000</r>
       <r>   6.3829  1.0000</r>
       <r>   6.4238  1.0000</r>
       <r>   6.4238  1.0000</r>
       <r>   6.8117  1.0000</r>
       <r>   7.0550  1.0000</r>
       <r>   7.0593  1.0000</r>
       <r>   7.3368  1.0000</r>
       <r>   7.3913  1.0000</r>
       <r>   7.5472  0.0000</r>
       <r>   7.5472  0.0000</r>
       <r>   7.5786  0.0000</r>
       <r>   7.6599  0.0000</r>
       <r>   7.7269  0.0000</r>
       <r>   7.7754  0.0000</r>
       <r>   7.7754  0.0000</r>
       <r>   8.2199  0.0000</r>
       <r>   8.2250  0.0000</r>
       <r>   8.2256  0.0000</r>
       <r>   8.2579  0.0000</r>
       <r>   8.2580  0.0000</r>
       <r>   8.3996  0.0000</r>
       <r>   8.7098  0.0000</r>
       <r>   8.7715  0.0000</r>
       <r>   8.9653  0.0000</r>
       <r>   8.9653  0.0000</r>
       <r>   9.0395  0.0000</r>
       <r>   9.0593  0.0000</r>
       <r>   9.0724  0.0000</r>
       <r>   9.1248  0.0000</r>
       <r>   9.1248  0.0000</r>
      </set>
      <set comment="kpoint 11">
       <r>  -3.1751  1.0000</r>
       <r>  -2.0887  1.0000</r>
       <r>  -1.3689  1.0000</r>
       <r>  -1.0104  1.0000</r>
       <r>  -1.0104  1.0000</r>
       <r>  -0.6527  1.0000</r>
       <r>  -0.2956  1.0000</r>
       <r>   0.0582  1.0000</r>
       <r>   0.0605  1.0000</r>
       <r>   0.0619  1.0000</r>
       <r>   0.4156  1.0000</r>
       <r>   0.7702  1.0000</r>
       <r>   0.7702  1.0000</r>
       <r>   1.4765  1.0000</r>
       <r>   1.4765  1.0000</r>
       <r>   1.8265  1.0000</r>
       <r>   1.8292  1.0000</r>
       <r>   1.8304  1.0000</r>
       <r>   2.1788  1.0000</r>
       <r>   2.1788  1.0000</r>
       <r>   2.5279  1.0000</r>
       <r>   2.5307  1.0000</r>
       <r>   2.5318  1.0000</r>
       <r>   3.1953  1.0000</r>
       <r>   3.9271  1.0000</r>
       <r>   3.9271  1.0000</r>
       <r>   4.4562  1.0000</r>
       <r>   4.6199  1.0000</r>
       <r>   4.6200  1.0000</r>
       <r>   4.7756  1.0000</r>
       <r>   4.9207  1.0000</r>
       <r>   5.2625  1.0000</r>
       <r>   5.2625  1.0000</r>
       <r>   5.4739  1.0000</r>
       <r>   5.6040  1.0000</r>
       <r>   5.7815  1.0000</r>
       <r>   5.9744  1.0000</r>
       <r>   6.2914  1.0000</r>
       <r>   6.4529  1.0000</r>
       <r>   6.4933  1.0000</r>
       <r>   6.4933  1.0000</r>
       <r>   6.9803  1.0000</r>
       <r>   6.9803  1.0000</r>
       <r>   7.0090  1.0000</r>
       <r>   7.1250  1.0000</r>
       <r>   7.3228  1.0000</r>
       <r>   7.4607  0.0000</r>
       <r>   7.5076  0.0000</r>
       <r>   7.5078  0.0000</r>
       <r>   7.5276  0.0000</r>
       <r>   7.5339  0.0000</r>
       <r>   7.6608  0.0000</r>
       <r>   7.6609  0.0000</r>
       <r>   7.7415  0.0000</r>
       <r>   7.7978  0.0000</r>
       <r>   8.1333  0.0000</r>
       <r>   8.3659  0.0000</r>
       <r>   8.3659  0.0000</r>
       <r>   8.3948  0.0000</r>
       <r>   8.7880  0.0000</r>
       <r>   9.1600  0.0000</r>
       <r>   9.3145  0.0000</r>
       <r>   9.4152  0.0000</r>
       <r>   9.4152  0.0000</r>
       <r>   9.4362  0.0000</r>
       <r>   9.4671  0.0000</r>
       <r>   9.4797  0.0000</r>
       <r>   9.5320  0.0000</r>
      </set>
      <set comment="kpoint 12">
       <r>  -3.0691  1.0000</r>
       <r>  -2.3445  1.0000</r>
       <r>  -1.2643  1.0000</r>
       <r>  -0.9059  1.0000</r>
       <r>  -0.9059  1.0000</r>
       <r>  -0.5490  1.0000</r>
       <r>  -0.5479  1.0000</r>
       <r>  -0.1917  1.0000</r>
       <r>  -0.1917  1.0000</r>
       <r>   0.1640  1.0000</r>
       <r>   0.5175  1.0000</r>
       <r>   0.8735  1.0000</r>
       <r>   0.8735  1.0000</r>
       <r>   1.5788  1.0000</r>
       <r>   1.5791  1.0000</r>
       <r>   1.5800  1.0000</r>
       <r>   1.5803  1.0000</r>
       <r>   2.2800  1.0000</r>
       <r>   2.2825  1.0000</r>
       <r>   2.2826  1.0000</r>
       <r>   2.6142  1.0000</r>
       <r>   2.6302  1.0000</r>
       <r>   2.6302  1.0000</r>
       <r>   2.9793  1.0000</r>
       <r>   4.3493  1.0000</r>
       <r>   4.3738  1.0000</r>
       <r>   4.3738  1.0000</r>
       <r>   4.5553  1.0000</r>
       <r>   4.6935  1.0000</r>
       <r>   4.6936  1.0000</r>
       <r>   4.8733  1.0000</r>
       <r>   5.0370  1.0000</r>
       <r>   5.0651  1.0000</r>
       <r>   5.0651  1.0000</r>
       <r>   5.2339  1.0000</r>
       <r>   5.5438  1.0000</r>
       <r>   6.0778  1.0000</r>
       <r>   6.3934  1.0000</r>
       <r>   6.4171  1.0000</r>
       <r>   6.4171  1.0000</r>
       <r>   6.5508  1.0000</r>
       <r>   6.5918  1.0000</r>
       <r>   6.5918  1.0000</r>
       <r>   6.7754  1.0000</r>
       <r>   7.0843  1.0000</r>
       <r>   7.1001  1.0000</r>
       <r>   7.1002  1.0000</r>
       <r>   7.2220  1.0000</r>
       <r>   7.2237  1.0000</r>
       <r>   7.2683  1.0000</r>
       <r>   7.2683  1.0000</r>
       <r>   7.8469  0.0000</r>
       <r>   7.8952  0.0000</r>
       <r>   7.9523  0.0000</r>
       <r>   8.2325  0.0000</r>
       <r>   8.3001  0.0000</r>
       <r>   8.4780  0.0000</r>
       <r>   8.4780  0.0000</r>
       <r>   8.5198  0.0000</r>
       <r>   8.5441  0.0000</r>
       <r>   9.1735  0.0000</r>
       <r>   9.1735  0.0000</r>
       <r>   9.2245  0.0000</r>
       <r>   9.5816  0.0000</r>
       <r>   9.8596  0.0000</r>
       <r>   9.9145  0.0000</r>
       <r>   9.9607  0.0000</r>
       <r>   9.9678  0.0000</r>
      </set>
      <set comment="kpoint 13">
       <r>  -2.9330  1.0000</r>
       <r>  -2.5706  1.0000</r>
       <r>  -1.1298  1.0000</r>
       <r>  -0.7731  1.0000</r>
       <r>  -0.7718  1.0000</r>
       <r>  -0.7704  1.0000</r>
       <r>  -0.4159  1.0000</r>
       <r>  -0.4145  1.0000</r>
       <r>  -0.4133  1.0000</r>
       <r>  -0.0583  1.0000</r>
       <r>   1.0024  1.0000</r>
       <r>   1.0062  1.0000</r>
       <r>   1.0066  1.0000</r>
       <r>   1.3594  1.0000</r>
       <r>   1.3594  1.0000</r>
       <r>   1.7114  1.0000</r>
       <r>   1.7114  1.0000</r>
       <r>   2.0526  1.0000</r>
       <r>   2.0631  1.0000</r>
       <r>   2.0633  1.0000</r>
       <r>   2.7596  1.0000</r>
       <r>   3.1085  1.0000</r>
       <r>   3.1085  1.0000</r>
       <r>   3.4565  1.0000</r>
       <r>   3.7960  1.0000</r>
       <r>   4.1420  1.0000</r>
       <r>   4.1420  1.0000</r>
       <r>   4.4872  1.0000</r>
       <r>   4.6826  1.0000</r>
       <r>   4.8474  1.0000</r>
       <r>   4.8474  1.0000</r>
       <r>   4.9990  1.0000</r>
       <r>   5.0220  1.0000</r>
       <r>   5.3342  1.0000</r>
       <r>   5.5368  1.0000</r>
       <r>   5.5368  1.0000</r>
       <r>   5.8709  1.0000</r>
       <r>   5.8709  1.0000</r>
       <r>   6.2102  1.0000</r>
       <r>   6.5242  1.0000</r>
       <r>   6.5560  1.0000</r>
       <r>   6.5562  1.0000</r>
       <r>   6.5606  1.0000</r>
       <r>   6.6768  1.0000</r>
       <r>   6.7186  1.0000</r>
       <r>   6.7186  1.0000</r>
       <r>   6.8706  1.0000</r>
       <r>   7.0127  1.0000</r>
       <r>   7.0569  1.0000</r>
       <r>   7.0570  1.0000</r>
       <r>   7.3490  1.0000</r>
       <r>   7.6851  0.0000</r>
       <r>   7.9793  0.0000</r>
       <r>   8.3278  0.0000</r>
       <r>   8.4127  0.0000</r>
       <r>   8.6120  0.0000</r>
       <r>   8.6120  0.0000</r>
       <r>   8.6584  0.0000</r>
       <r>   8.6955  0.0000</r>
       <r>   8.9591  0.0000</r>
       <r>   8.9591  0.0000</r>
       <r>   9.0091  0.0000</r>
       <r>   9.0994  0.0000</r>
       <r>   9.4177  0.0000</r>
       <r>   9.7062  0.0000</r>
       <r>  10.0274  0.0000</r>
       <r>  10.3064  0.0000</r>
       <r>  10.3817  0.0000</r>
      </set>
      <set comment="kpoint 14">
       <r>  -2.7682  1.0000</r>
       <r>  -2.7654  1.0000</r>
       <r>  -0.9669  1.0000</r>
       <r>  -0.9642  1.0000</r>
       <r>  -0.6099  1.0000</r>
       <r>  -0.6087  1.0000</r>
       <r>  -0.6071  1.0000</r>
       <r>  -0.6060  1.0000</r>
       <r>  -0.2526  1.0000</r>
       <r>  -0.2499  1.0000</r>
       <r>   1.1662  1.0000</r>
       <r>   1.1673  1.0000</r>
       <r>   1.1690  1.0000</r>
       <r>   1.1701  1.0000</r>
       <r>   1.5142  1.0000</r>
       <r>   1.5156  1.0000</r>
       <r>   1.8707  1.0000</r>
       <r>   1.8719  1.0000</r>
       <r>   1.8735  1.0000</r>
       <r>   1.8747  1.0000</r>
       <r>   3.2646  1.0000</r>
       <r>   3.2660  1.0000</r>
       <r>   3.6121  1.0000</r>
       <r>   3.6123  1.0000</r>
       <r>   3.6135  1.0000</r>
       <r>   3.6137  1.0000</r>
       <r>   3.9588  1.0000</r>
       <r>   3.9602  1.0000</r>
       <r>   4.8368  1.0000</r>
       <r>   4.8397  1.0000</r>
       <r>   5.1511  1.0000</r>
       <r>   5.1540  1.0000</r>
       <r>   5.3461  1.0000</r>
       <r>   5.3462  1.0000</r>
       <r>   5.3475  1.0000</r>
       <r>   5.3476  1.0000</r>
       <r>   6.0335  1.0000</r>
       <r>   6.0336  1.0000</r>
       <r>   6.0350  1.0000</r>
       <r>   6.0351  1.0000</r>
       <r>   6.3700  1.0000</r>
       <r>   6.3727  1.0000</r>
       <r>   6.6821  1.0000</r>
       <r>   6.6849  1.0000</r>
       <r>   6.8292  1.0000</r>
       <r>   6.8322  1.0000</r>
       <r>   6.8715  1.0000</r>
       <r>   6.8729  1.0000</r>
       <r>   6.8745  1.0000</r>
       <r>   6.8759  1.0000</r>
       <r>   7.5016  0.0000</r>
       <r>   7.5045  0.0000</r>
       <r>   8.1382  0.0000</r>
       <r>   8.1409  0.0000</r>
       <r>   8.7703  0.0000</r>
       <r>   8.7710  0.0000</r>
       <r>   8.7731  0.0000</r>
       <r>   8.7737  0.0000</r>
       <r>   8.8193  0.0000</r>
       <r>   8.8221  0.0000</r>
       <r>   8.9007  0.0000</r>
       <r>   8.9027  0.0000</r>
       <r>   9.1856  0.0000</r>
       <r>   9.1879  0.0000</r>
       <r>   9.9267  0.0000</r>
       <r>   9.9282  0.0000</r>
       <r>  10.4918  0.0000</r>
       <r>  10.4923  0.0000</r>
      </set>
      <set comment="kpoint 15">
       <r>  -3.2660  1.0000</r>
       <r>  -1.8184  1.0000</r>
       <r>  -1.1027  1.0000</r>
       <r>  -1.0999  1.0000</r>
       <r>  -1.0999  1.0000</r>
       <r>  -1.0971  1.0000</r>
       <r>  -0.3852  1.0000</r>
       <r>   0.3242  1.0000</r>
       <r>   0.3270  1.0000</r>
       <r>   0.3270  1.0000</r>
       <r>   0.3298  1.0000</r>
       <r>   1.0333  1.0000</r>
       <r>   1.0344  1.0000</r>
       <r>   1.0366  1.0000</r>
       <r>   1.0376  1.0000</r>
       <r>   1.7374  1.0000</r>
       <r>   1.7403  1.0000</r>
       <r>   1.7403  1.0000</r>
       <r>   1.7431  1.0000</r>
       <r>   2.4412  1.0000</r>
       <r>   2.4423  1.0000</r>
       <r>   2.4445  1.0000</r>
       <r>   2.4455  1.0000</r>
       <r>   3.7709  1.0000</r>
       <r>   3.8386  1.0000</r>
       <r>   3.8396  1.0000</r>
       <r>   3.8419  1.0000</r>
       <r>   3.8429  1.0000</r>
       <r>   4.6918  1.0000</r>
       <r>   4.6918  1.0000</r>
       <r>   5.8206  1.0000</r>
       <r>   5.8236  1.0000</r>
       <r>   5.8236  1.0000</r>
       <r>   5.8266  1.0000</r>
       <r>   5.8855  1.0000</r>
       <r>   5.8856  1.0000</r>
       <r>   6.0332  1.0000</r>
       <r>   6.0332  1.0000</r>
       <r>   6.7023  1.0000</r>
       <r>   6.7049  1.0000</r>
       <r>   6.7049  1.0000</r>
       <r>   6.7075  1.0000</r>
       <r>   6.7972  1.0000</r>
       <r>   7.2680  1.0000</r>
       <r>   7.2680  1.0000</r>
       <r>   7.3773  1.0000</r>
       <r>   7.3773  1.0000</r>
       <r>   7.8698  0.0000</r>
       <r>   7.8712  0.0000</r>
       <r>   7.8734  0.0000</r>
       <r>   7.8747  0.0000</r>
       <r>   7.9625  0.0000</r>
       <r>   7.9648  0.0000</r>
       <r>   7.9648  0.0000</r>
       <r>   7.9671  0.0000</r>
       <r>   8.0465  0.0000</r>
       <r>   8.0491  0.0000</r>
       <r>   8.0492  0.0000</r>
       <r>   8.0518  0.0000</r>
       <r>   8.7503  0.0000</r>
       <r>   8.7503  0.0000</r>
       <r>   8.9331  0.0000</r>
       <r>   8.9352  0.0000</r>
       <r>   8.9352  0.0000</r>
       <r>   8.9374  0.0000</r>
       <r>   9.3847  0.0000</r>
       <r>   9.3857  0.0000</r>
       <r>   9.3880  0.0000</r>
      </set>
      <set comment="kpoint 16">
       <r>  -3.2508  1.0000</r>
       <r>  -1.8034  1.0000</r>
       <r>  -1.4438  1.0000</r>
       <r>  -1.0850  1.0000</r>
       <r>  -1.0850  1.0000</r>
       <r>  -0.7272  1.0000</r>
       <r>  -0.3703  1.0000</r>
       <r>  -0.0136  1.0000</r>
       <r>   0.3418  1.0000</r>
       <r>   0.3418  1.0000</r>
       <r>   0.6950  1.0000</r>
       <r>   0.6964  1.0000</r>
       <r>   0.6978  1.0000</r>
       <r>   1.4015  1.0000</r>
       <r>   1.4030  1.0000</r>
       <r>   1.4043  1.0000</r>
       <r>   1.7549  1.0000</r>
       <r>   1.7549  1.0000</r>
       <r>   2.1060  1.0000</r>
       <r>   2.1074  1.0000</r>
       <r>   2.1076  1.0000</r>
       <r>   2.8071  1.0000</r>
       <r>   2.8071  1.0000</r>
       <r>   3.5081  1.0000</r>
       <r>   3.5081  1.0000</r>
       <r>   3.7852  1.0000</r>
       <r>   4.2021  1.0000</r>
       <r>   4.2021  1.0000</r>
       <r>   4.3854  1.0000</r>
       <r>   4.7058  1.0000</r>
       <r>   5.4979  1.0000</r>
       <r>   5.7418  1.0000</r>
       <r>   5.8358  1.0000</r>
       <r>   5.8359  1.0000</r>
       <r>   5.9004  1.0000</r>
       <r>   6.0471  1.0000</r>
       <r>   6.1754  1.0000</r>
       <r>   6.2184  1.0000</r>
       <r>   6.3829  1.0000</r>
       <r>   6.4239  1.0000</r>
       <r>   6.4239  1.0000</r>
       <r>   6.8117  1.0000</r>
       <r>   7.0550  1.0000</r>
       <r>   7.0594  1.0000</r>
       <r>   7.3368  1.0000</r>
       <r>   7.3913  1.0000</r>
       <r>   7.5472  0.0000</r>
       <r>   7.5472  0.0000</r>
       <r>   7.5786  0.0000</r>
       <r>   7.6599  0.0000</r>
       <r>   7.7268  0.0000</r>
       <r>   7.7754  0.0000</r>
       <r>   7.7754  0.0000</r>
       <r>   8.2204  0.0000</r>
       <r>   8.2251  0.0000</r>
       <r>   8.2251  0.0000</r>
       <r>   8.2579  0.0000</r>
       <r>   8.2580  0.0000</r>
       <r>   8.3996  0.0000</r>
       <r>   8.7098  0.0000</r>
       <r>   8.7715  0.0000</r>
       <r>   8.9653  0.0000</r>
       <r>   8.9653  0.0000</r>
       <r>   9.0394  0.0000</r>
       <r>   9.0593  0.0000</r>
       <r>   9.0723  0.0000</r>
       <r>   9.1248  0.0000</r>
       <r>   9.1249  0.0000</r>
      </set>
      <set comment="kpoint 17">
       <r>  -3.2054  1.0000</r>
       <r>  -1.7595  1.0000</r>
       <r>  -1.7573  1.0000</r>
       <r>  -1.0402  1.0000</r>
       <r>  -1.0402  1.0000</r>
       <r>  -0.3274  1.0000</r>
       <r>  -0.3256  1.0000</r>
       <r>  -0.3238  1.0000</r>
       <r>   0.3846  1.0000</r>
       <r>   0.3855  1.0000</r>
       <r>   0.3869  1.0000</r>
       <r>   0.3878  1.0000</r>
       <r>   1.0934  1.0000</r>
       <r>   1.0945  1.0000</r>
       <r>   1.7967  1.0000</r>
       <r>   1.7979  1.0000</r>
       <r>   1.7992  1.0000</r>
       <r>   1.7993  1.0000</r>
       <r>   1.8006  1.0000</r>
       <r>   1.8017  1.0000</r>
       <r>   2.5001  1.0000</r>
       <r>   3.1662  1.0000</r>
       <r>   3.1662  1.0000</r>
       <r>   3.2366  1.0000</r>
       <r>   3.2366  1.0000</r>
       <r>   3.8278  1.0000</r>
       <r>   3.8287  1.0000</r>
       <r>   4.5914  1.0000</r>
       <r>   4.5914  1.0000</r>
       <r>   4.7477  1.0000</r>
       <r>   5.1985  1.0000</r>
       <r>   5.2008  1.0000</r>
       <r>   5.8222  1.0000</r>
       <r>   5.8222  1.0000</r>
       <r>   5.9442  1.0000</r>
       <r>   5.9459  1.0000</r>
       <r>   5.9465  1.0000</r>
       <r>   6.0878  1.0000</r>
       <r>   6.0904  1.0000</r>
       <r>   6.5480  1.0000</r>
       <r>   6.5496  1.0000</r>
       <r>   6.8544  1.0000</r>
       <r>   6.8554  1.0000</r>
       <r>   7.2484  1.0000</r>
       <r>   7.2494  1.0000</r>
       <r>   7.2508  1.0000</r>
       <r>   7.2517  1.0000</r>
       <r>   7.3731  1.0000</r>
       <r>   7.3747  1.0000</r>
       <r>   7.4309  0.5866</r>
       <r>   7.4331  0.4627</r>
       <r>   7.4353  0.3412</r>
       <r>   8.1625  0.0000</r>
       <r>   8.1645  0.0000</r>
       <r>   8.6042  0.0000</r>
       <r>   8.6053  0.0000</r>
       <r>   8.6054  0.0000</r>
       <r>   8.6064  0.0000</r>
       <r>   8.7426  0.0000</r>
       <r>   8.7427  0.0000</r>
       <r>   8.7601  0.0000</r>
       <r>   8.7772  0.0000</r>
       <r>   8.7790  0.0000</r>
       <r>   8.8497  0.0000</r>
       <r>   8.8506  0.0000</r>
       <r>   9.1348  0.0000</r>
       <r>   9.1348  0.0000</r>
       <r>   9.6326  0.0000</r>
      </set>
      <set comment="kpoint 18">
       <r>  -3.1297  1.0000</r>
       <r>  -2.0437  1.0000</r>
       <r>  -1.6834  1.0000</r>
       <r>  -0.9656  1.0000</r>
       <r>  -0.9656  1.0000</r>
       <r>  -0.6078  1.0000</r>
       <r>  -0.2515  1.0000</r>
       <r>   0.1027  1.0000</r>
       <r>   0.1049  1.0000</r>
       <r>   0.1063  1.0000</r>
       <r>   0.4601  1.0000</r>
       <r>   0.4601  1.0000</r>
       <r>   0.8140  1.0000</r>
       <r>   1.5185  1.0000</r>
       <r>   1.5211  1.0000</r>
       <r>   1.5224  1.0000</r>
       <r>   1.8722  1.0000</r>
       <r>   1.8722  1.0000</r>
       <r>   2.2227  1.0000</r>
       <r>   2.2227  1.0000</r>
       <r>   2.9205  1.0000</r>
       <r>   2.9229  1.0000</r>
       <r>   2.9243  1.0000</r>
       <r>   3.2387  1.0000</r>
       <r>   3.6238  1.0000</r>
       <r>   3.6238  1.0000</r>
       <r>   3.8999  1.0000</r>
       <r>   4.6202  1.0000</r>
       <r>   4.8174  1.0000</r>
       <r>   4.9291  1.0000</r>
       <r>   5.0084  1.0000</r>
       <r>   5.0084  1.0000</r>
       <r>   5.3024  1.0000</r>
       <r>   5.3024  1.0000</r>
       <r>   5.8234  1.0000</r>
       <r>   5.9626  1.0000</r>
       <r>   5.9626  1.0000</r>
       <r>   5.9847  1.0000</r>
       <r>   6.0186  1.0000</r>
       <r>   6.1590  1.0000</r>
       <r>   6.6818  1.0000</r>
       <r>   6.6818  1.0000</r>
       <r>   6.8901  1.0000</r>
       <r>   6.9269  1.0000</r>
       <r>   6.9809  1.0000</r>
       <r>   6.9809  1.0000</r>
       <r>   7.1666  1.0000</r>
       <r>   7.1706  1.0000</r>
       <r>   7.4457  0.0300</r>
       <r>   7.5033  0.0000</r>
       <r>   7.5766  0.0000</r>
       <r>   7.8398  0.0000</r>
       <r>   7.9362  0.0000</r>
       <r>   8.0425  0.0000</r>
       <r>   8.0425  0.0000</r>
       <r>   8.4880  0.0000</r>
       <r>   8.5119  0.0000</r>
       <r>   8.6687  0.0000</r>
       <r>   8.9582  0.0000</r>
       <r>   8.9582  0.0000</r>
       <r>   9.0129  0.0000</r>
       <r>   9.0129  0.0000</r>
       <r>   9.1263  0.0000</r>
       <r>   9.1848  0.0000</r>
       <r>   9.2126  0.0000</r>
       <r>   9.6934  0.0000</r>
       <r>   9.6934  0.0000</r>
       <r>   9.8444  0.0000</r>
      </set>
      <set comment="kpoint 19">
       <r>  -3.0237  1.0000</r>
       <r>  -2.2994  1.0000</r>
       <r>  -1.5785  1.0000</r>
       <r>  -0.8625  1.0000</r>
       <r>  -0.8612  1.0000</r>
       <r>  -0.8598  1.0000</r>
       <r>  -0.1487  1.0000</r>
       <r>  -0.1472  1.0000</r>
       <r>  -0.1460  1.0000</r>
       <r>   0.5605  1.0000</r>
       <r>   0.5632  1.0000</r>
       <r>   0.5636  1.0000</r>
       <r>   0.5648  1.0000</r>
       <r>   1.2713  1.0000</r>
       <r>   1.2713  1.0000</r>
       <r>   1.9729  1.0000</r>
       <r>   1.9747  1.0000</r>
       <r>   1.9750  1.0000</r>
       <r>   2.6577  1.0000</r>
       <r>   2.6731  1.0000</r>
       <r>   2.6736  1.0000</r>
       <r>   2.6763  1.0000</r>
       <r>   2.6769  1.0000</r>
       <r>   3.3710  1.0000</r>
       <r>   4.0002  1.0000</r>
       <r>   4.0471  1.0000</r>
       <r>   4.0707  1.0000</r>
       <r>   4.0707  1.0000</r>
[...]
       <r>   2.0472  1.0000</r>
       <r>   2.3887  1.0000</r>
       <r>   2.3906  1.0000</r>
       <r>   2.3923  1.0000</r>
       <r>   2.3926  1.0000</r>
       <r>   2.3927  1.0000</r>
       <r>   2.3930  1.0000</r>
       <r>   2.3946  1.0000</r>
       <r>   2.3966  1.0000</r>
       <r>   2.7384  1.0000</r>
       <r>   2.7404  1.0000</r>
       <r>   2.7420  1.0000</r>
       <r>   2.7423  1.0000</r>
       <r>   2.7424  1.0000</r>
       <r>   2.7427  1.0000</r>
       <r>   2.7443  1.0000</r>
       <r>   2.7463  1.0000</r>
       <r>   3.0840  1.0000</r>
       <r>   3.0863  1.0000</r>
       <r>   3.0868  1.0000</r>
       <r>   3.0891  1.0000</r>
       <r>   6.1958  1.0000</r>
       <r>   6.1978  1.0000</r>
       <r>   6.1995  1.0000</r>
       <r>   6.1998  1.0000</r>
       <r>   6.1999  1.0000</r>
       <r>   6.2002  1.0000</r>
       <r>   6.2019  1.0000</r>
       <r>   6.2039  1.0000</r>
       <r>   6.5362  1.0000</r>
       <r>   6.5373  1.0000</r>
       <r>   6.5377  1.0000</r>
       <r>   6.5388  1.0000</r>
       <r>   6.8789  1.0000</r>
       <r>   6.8800  1.0000</r>
       <r>   6.8804  1.0000</r>
       <r>   6.8815  1.0000</r>
       <r>   7.2097  1.0000</r>
       <r>   7.2119  1.0000</r>
       <r>   7.2136  1.0000</r>
       <r>   7.2139  1.0000</r>
       <r>   7.2140  1.0000</r>
       <r>   7.2142  1.0000</r>
       <r>   7.2160  1.0000</r>
       <r>   7.2181  1.0000</r>
       <r>  10.1099  0.0000</r>
       <r>  10.1120  0.0000</r>
       <r>  10.1127  0.0000</r>
       <r>  10.1148  0.0000</r>
       <r>  10.2620  0.0000</r>
       <r>  10.2631  0.0000</r>
       <r>  10.2637  0.0000</r>
       <r>  10.2648  0.0000</r>
       <r>  10.7770  0.0000</r>
       <r>  10.7779  0.0000</r>
       <r>  10.7791  0.0000</r>
       <r>  10.7801  0.0000</r>
      </set>
      <set comment="kpoint 190">
       <r>  -2.2392  1.0000</r>
       <r>  -2.2392  1.0000</r>
       <r>  -2.2392  1.0000</r>
       <r>  -2.2392  1.0000</r>
       <r>  -0.0930  1.0000</r>
       <r>  -0.0884  1.0000</r>
       <r>  -0.0884  1.0000</r>
       <r>  -0.0879  1.0000</r>
       <r>  -0.0877  1.0000</r>
       <r>  -0.0872  1.0000</r>
       <r>  -0.0872  1.0000</r>
       <r>  -0.0827  1.0000</r>
       <r>   2.0275  1.0000</r>
       <r>   2.0275  1.0000</r>
       <r>   2.0275  1.0000</r>
       <r>   2.0275  1.0000</r>
       <r>   2.0275  1.0000</r>
       <r>   2.0275  1.0000</r>
       <r>   2.0275  1.0000</r>
       <r>   2.0275  1.0000</r>
       <r>   4.0632  1.0000</r>
       <r>   4.0632  1.0000</r>
       <r>   4.0645  1.0000</r>
       <r>   4.0646  1.0000</r>
       <r>   4.0647  1.0000</r>
       <r>   4.0647  1.0000</r>
       <r>   4.0661  1.0000</r>
       <r>   4.0661  1.0000</r>
       <r>   4.1767  1.0000</r>
       <r>   4.1767  1.0000</r>
       <r>   4.1783  1.0000</r>
       <r>   4.1783  1.0000</r>
       <r>   4.1783  1.0000</r>
       <r>   4.1785  1.0000</r>
       <r>   4.1799  1.0000</r>
       <r>   4.1799  1.0000</r>
       <r>   5.6416  1.0000</r>
       <r>   5.6416  1.0000</r>
       <r>   5.6416  1.0000</r>
       <r>   5.6416  1.0000</r>
       <r>   6.1546  1.0000</r>
       <r>   6.1546  1.0000</r>
       <r>   6.1546  1.0000</r>
       <r>   6.1546  1.0000</r>
       <r>   6.9282  1.0000</r>
       <r>   6.9282  1.0000</r>
       <r>   6.9282  1.0000</r>
       <r>   6.9282  1.0000</r>
       <r>   8.2270  0.0000</r>
       <r>   8.2270  0.0000</r>
       <r>   8.2275  0.0000</r>
       <r>   8.2284  0.0000</r>
       <r>   8.2300  0.0000</r>
       <r>   8.2308  0.0000</r>
       <r>   8.2314  0.0000</r>
       <r>   8.2314  0.0000</r>
       <r>   9.6772  0.0000</r>
       <r>   9.6772  0.0000</r>
       <r>   9.6772  0.0000</r>
       <r>   9.6772  0.0000</r>
       <r>   9.6772  0.0000</r>
       <r>   9.6772  0.0000</r>
       <r>   9.6772  0.0000</r>
       <r>   9.6773  0.0000</r>
       <r>  10.3696  0.0000</r>
       <r>  10.3696  0.0000</r>
       <r>  10.3696  0.0000</r>
       <r>  10.3696  0.0000</r>
      </set>
      <set comment="kpoint 191">
       <r>  -2.2242  1.0000</r>
       <r>  -2.2241  1.0000</r>
       <r>  -2.2241  1.0000</r>
       <r>  -2.2241  1.0000</r>
       <r>  -0.4294  1.0000</r>
       <r>  -0.4294  1.0000</r>
       <r>  -0.4294  1.0000</r>
       <r>  -0.4294  1.0000</r>
       <r>   0.2825  1.0000</r>
       <r>   0.2825  1.0000</r>
       <r>   0.2825  1.0000</r>
       <r>   0.2825  1.0000</r>
       <r>   2.0421  1.0000</r>
       <r>   2.0421  1.0000</r>
       <r>   2.0421  1.0000</r>
       <r>   2.0421  1.0000</r>
       <r>   2.0421  1.0000</r>
       <r>   2.0421  1.0000</r>
       <r>   2.0421  1.0000</r>
       <r>   2.0421  1.0000</r>
       <r>   3.7841  1.0000</r>
       <r>   3.7841  1.0000</r>
       <r>   3.7843  1.0000</r>
       <r>   3.7843  1.0000</r>
       <r>   3.7843  1.0000</r>
       <r>   3.7843  1.0000</r>
       <r>   3.7845  1.0000</r>
       <r>   3.7845  1.0000</r>
       <r>   4.4864  1.0000</r>
       <r>   4.4864  1.0000</r>
       <r>   4.4867  1.0000</r>
       <r>   4.4867  1.0000</r>
       <r>   4.4867  1.0000</r>
       <r>   4.4868  1.0000</r>
       <r>   4.4870  1.0000</r>
       <r>   4.4870  1.0000</r>
       <r>   5.3450  1.0000</r>
       <r>   5.3450  1.0000</r>
       <r>   5.3450  1.0000</r>
       <r>   5.3451  1.0000</r>
       <r>   6.1834  1.0000</r>
       <r>   6.1834  1.0000</r>
       <r>   6.1834  1.0000</r>
       <r>   6.1834  1.0000</r>
       <r>   7.2366  1.0000</r>
       <r>   7.2366  1.0000</r>
       <r>   7.2366  1.0000</r>
       <r>   7.2366  1.0000</r>
       <r>   7.9036  0.0000</r>
       <r>   7.9036  0.0000</r>
       <r>   7.9036  0.0000</r>
       <r>   7.9036  0.0000</r>
       <r>   8.5822  0.0000</r>
       <r>   8.5822  0.0000</r>
       <r>   8.5822  0.0000</r>
       <r>   8.5822  0.0000</r>
       <r>   9.3975  0.0000</r>
       <r>   9.3975  0.0000</r>
       <r>   9.3978  0.0000</r>
       <r>   9.3978  0.0000</r>
       <r>   9.3978  0.0000</r>
       <r>   9.3978  0.0000</r>
       <r>   9.3981  0.0000</r>
       <r>   9.3981  0.0000</r>
       <r>  10.4143  0.0000</r>
       <r>  10.4145  0.0000</r>
       <r>  10.4148  0.0000</r>
       <r>  10.4150  0.0000</r>
      </set>
      <set comment="kpoint 192">
       <r>  -2.1790  1.0000</r>
       <r>  -2.1790  1.0000</r>
       <r>  -2.1790  1.0000</r>
       <r>  -2.1790  1.0000</r>
       <r>  -0.7419  1.0000</r>
       <r>  -0.7419  1.0000</r>
       <r>  -0.7419  1.0000</r>
       <r>  -0.7419  1.0000</r>
       <r>   0.6812  1.0000</r>
       <r>   0.6812  1.0000</r>
       <r>   0.6812  1.0000</r>
       <r>   0.6813  1.0000</r>
       <r>   2.0860  1.0000</r>
       <r>   2.0860  1.0000</r>
       <r>   2.0860  1.0000</r>
       <r>   2.0860  1.0000</r>
       <r>   2.0860  1.0000</r>
       <r>   2.0860  1.0000</r>
       <r>   2.0860  1.0000</r>
       <r>   2.0860  1.0000</r>
       <r>   3.4822  1.0000</r>
       <r>   3.4822  1.0000</r>
       <r>   3.4823  1.0000</r>
       <r>   3.4823  1.0000</r>
       <r>   3.4823  1.0000</r>
       <r>   3.4823  1.0000</r>
       <r>   3.4824  1.0000</r>
       <r>   3.4824  1.0000</r>
       <r>   4.7996  1.0000</r>
       <r>   4.7996  1.0000</r>
       <r>   4.7997  1.0000</r>
       <r>   4.7997  1.0000</r>
       <r>   4.8727  1.0000</r>
       <r>   4.8727  1.0000</r>
       <r>   4.8729  1.0000</r>
       <r>   4.8729  1.0000</r>
       <r>   4.8729  1.0000</r>
       <r>   4.8729  1.0000</r>
       <r>   4.8731  1.0000</r>
       <r>   4.8731  1.0000</r>
       <r>   6.2337  1.0000</r>
       <r>   6.2337  1.0000</r>
       <r>   6.2338  1.0000</r>
       <r>   6.2338  1.0000</r>
       <r>   7.6058  0.0000</r>
       <r>   7.6058  0.0000</r>
       <r>   7.6058  0.0000</r>
       <r>   7.6058  0.0000</r>
       <r>   7.8532  0.0000</r>
       <r>   7.8532  0.0000</r>
       <r>   7.8532  0.0000</r>
       <r>   7.8532  0.0000</r>
       <r>   8.8748  0.0000</r>
       <r>   8.8748  0.0000</r>
       <r>   8.8750  0.0000</r>
       <r>   8.8750  0.0000</r>
       <r>   8.8751  0.0000</r>
       <r>   8.8751  0.0000</r>
       <r>   8.8753  0.0000</r>
       <r>   8.8753  0.0000</r>
       <r>   8.9626  0.0000</r>
       <r>   8.9626  0.0000</r>
       <r>   8.9626  0.0000</r>
       <r>   8.9626  0.0000</r>
       <r>  10.4752  0.0000</r>
       <r>  10.4753  0.0000</r>
       <r>  10.4755  0.0000</r>
       <r>  10.4758  0.0000</r>
      </set>
      <set comment="kpoint 193">
       <r>  -2.1039  1.0000</r>
       <r>  -2.1038  1.0000</r>
       <r>  -2.1038  1.0000</r>
       <r>  -2.1038  1.0000</r>
       <r>  -1.0252  1.0000</r>
       <r>  -1.0252  1.0000</r>
       <r>  -1.0252  1.0000</r>
       <r>  -1.0252  1.0000</r>
       <r>   1.1082  1.0000</r>
       <r>   1.1082  1.0000</r>
       <r>   1.1082  1.0000</r>
       <r>   1.1082  1.0000</r>
       <r>   2.1590  1.0000</r>
       <r>   2.1590  1.0000</r>
       <r>   2.1590  1.0000</r>
       <r>   2.1590  1.0000</r>
       <r>   2.1590  1.0000</r>
       <r>   2.1590  1.0000</r>
       <r>   2.1590  1.0000</r>
       <r>   2.1590  1.0000</r>
       <r>   3.2072  1.0000</r>
       <r>   3.2072  1.0000</r>
       <r>   3.2073  1.0000</r>
       <r>   3.2073  1.0000</r>
       <r>   3.2073  1.0000</r>
       <r>   3.2073  1.0000</r>
       <r>   3.2073  1.0000</r>
       <r>   3.2073  1.0000</r>
       <r>   4.2180  1.0000</r>
       <r>   4.2181  1.0000</r>
       <r>   4.2181  1.0000</r>
       <r>   4.2181  1.0000</r>
       <r>   5.2879  1.0000</r>
       <r>   5.2879  1.0000</r>
       <r>   5.2880  1.0000</r>
       <r>   5.2880  1.0000</r>
       <r>   5.2880  1.0000</r>
       <r>   5.2881  1.0000</r>
       <r>   5.2882  1.0000</r>
       <r>   5.2882  1.0000</r>
       <r>   6.3076  1.0000</r>
       <r>   6.3076  1.0000</r>
       <r>   6.3076  1.0000</r>
       <r>   6.3076  1.0000</r>
       <r>   7.3359  1.0000</r>
       <r>   7.3359  1.0000</r>
       <r>   7.3359  1.0000</r>
       <r>   7.3359  1.0000</r>
       <r>   8.3127  0.0000</r>
       <r>   8.3127  0.0000</r>
       <r>   8.3129  0.0000</r>
       <r>   8.3129  0.0000</r>
       <r>   8.3129  0.0000</r>
       <r>   8.3129  0.0000</r>
       <r>   8.3131  0.0000</r>
       <r>   8.3131  0.0000</r>
       <r>   8.5636  0.0000</r>
       <r>   8.5636  0.0000</r>
       <r>   8.5636  0.0000</r>
       <r>   8.5637  0.0000</r>
       <r>   9.3699  0.0000</r>
       <r>   9.3699  0.0000</r>
       <r>   9.3699  0.0000</r>
       <r>   9.3699  0.0000</r>
       <r>  10.5512  0.0000</r>
       <r>  10.5515  0.0000</r>
       <r>  10.5517  0.0000</r>
       <r>  10.5519  0.0000</r>
      </set>
      <set comment="kpoint 194">
       <r>  -1.9987  1.0000</r>
       <r>  -1.9986  1.0000</r>
       <r>  -1.9986  1.0000</r>
       <r>  -1.9986  1.0000</r>
       <r>  -1.2792  1.0000</r>
       <r>  -1.2792  1.0000</r>
       <r>  -1.2792  1.0000</r>
       <r>  -1.2792  1.0000</r>
       <r>   1.5628  1.0000</r>
       <r>   1.5629  1.0000</r>
       <r>   1.5629  1.0000</r>
       <r>   1.5629  1.0000</r>
       <r>   2.2612  1.0000</r>
       <r>   2.2612  1.0000</r>
       <r>   2.2612  1.0000</r>
       <r>   2.2613  1.0000</r>
       <r>   2.2613  1.0000</r>
       <r>   2.2613  1.0000</r>
       <r>   2.2613  1.0000</r>
       <r>   2.2613  1.0000</r>
       <r>   2.9605  1.0000</r>
       <r>   2.9605  1.0000</r>
       <r>   2.9605  1.0000</r>
       <r>   2.9605  1.0000</r>
       <r>   2.9605  1.0000</r>
       <r>   2.9605  1.0000</r>
       <r>   2.9605  1.0000</r>
       <r>   2.9605  1.0000</r>
       <r>   3.6431  1.0000</r>
       <r>   3.6431  1.0000</r>
       <r>   3.6431  1.0000</r>
       <r>   3.6431  1.0000</r>
       <r>   5.7305  1.0000</r>
       <r>   5.7305  1.0000</r>
       <r>   5.7306  1.0000</r>
       <r>   5.7306  1.0000</r>
       <r>   5.7306  1.0000</r>
       <r>   5.7306  1.0000</r>
       <r>   5.7308  1.0000</r>
       <r>   5.7308  1.0000</r>
       <r>   6.4085  1.0000</r>
       <r>   6.4085  1.0000</r>
       <r>   6.4085  1.0000</r>
       <r>   6.4085  1.0000</r>
       <r>   7.0940  1.0000</r>
       <r>   7.0940  1.0000</r>
       <r>   7.0940  1.0000</r>
       <r>   7.0940  1.0000</r>
       <r>   7.7548  0.0000</r>
       <r>   7.7548  0.0000</r>
       <r>   7.7550  0.0000</r>
       <r>   7.7550  0.0000</r>
       <r>   7.7550  0.0000</r>
       <r>   7.7550  0.0000</r>
       <r>   7.7552  0.0000</r>
       <r>   7.7552  0.0000</r>
       <r>   9.3210  0.0000</r>
       <r>   9.3210  0.0000</r>
       <r>   9.3210  0.0000</r>
       <r>   9.3210  0.0000</r>
       <r>   9.8037  0.0000</r>
       <r>   9.8037  0.0000</r>
       <r>   9.8037  0.0000</r>
       <r>   9.8037  0.0000</r>
       <r>  10.6517  0.0000</r>
       <r>  10.6519  0.0000</r>
       <r>  10.6520  0.0000</r>
       <r>  10.6521  0.0000</r>
      </set>
      <set comment="kpoint 195">
       <r>  -1.8636  1.0000</r>
       <r>  -1.8635  1.0000</r>
       <r>  -1.8635  1.0000</r>
       <r>  -1.8635  1.0000</r>
       <r>  -1.5037  1.0000</r>
       <r>  -1.5037  1.0000</r>
       <r>  -1.5037  1.0000</r>
       <r>  -1.5036  1.0000</r>
       <r>   2.0447  1.0000</r>
       <r>   2.0447  1.0000</r>
       <r>   2.0447  1.0000</r>
       <r>   2.0447  1.0000</r>
       <r>   2.3926  1.0000</r>
       <r>   2.3926  1.0000</r>
       <r>   2.3926  1.0000</r>
       <r>   2.3926  1.0000</r>
       <r>   2.3926  1.0000</r>
       <r>   2.3926  1.0000</r>
       <r>   2.3926  1.0000</r>
       <r>   2.3926  1.0000</r>
       <r>   2.7423  1.0000</r>
       <r>   2.7423  1.0000</r>
       <r>   2.7424  1.0000</r>
       <r>   2.7424  1.0000</r>
       <r>   2.7424  1.0000</r>
       <r>   2.7424  1.0000</r>
       <r>   2.7424  1.0000</r>
       <r>   2.7424  1.0000</r>
       <r>   3.0865  1.0000</r>
       <r>   3.0865  1.0000</r>
       <r>   3.0865  1.0000</r>
       <r>   3.0866  1.0000</r>
       <r>   6.1997  1.0000</r>
       <r>   6.1997  1.0000</r>
       <r>   6.1998  1.0000</r>
       <r>   6.1998  1.0000</r>
       <r>   6.1998  1.0000</r>
       <r>   6.1998  1.0000</r>
       <r>   6.2000  1.0000</r>
       <r>   6.2000  1.0000</r>
       <r>   6.5375  1.0000</r>
       <r>   6.5375  1.0000</r>
       <r>   6.5375  1.0000</r>
       <r>   6.5375  1.0000</r>
       <r>   6.8802  1.0000</r>
       <r>   6.8802  1.0000</r>
       <r>   6.8802  1.0000</r>
       <r>   6.8802  1.0000</r>
       <r>   7.2138  1.0000</r>
       <r>   7.2138  1.0000</r>
       <r>   7.2139  1.0000</r>
       <r>   7.2139  1.0000</r>
       <r>   7.2139  1.0000</r>
       <r>   7.2139  1.0000</r>
       <r>   7.2141  1.0000</r>
       <r>   7.2141  1.0000</r>
       <r>  10.1123  0.0000</r>
       <r>  10.1124  0.0000</r>
       <r>  10.1124  0.0000</r>
       <r>  10.1124  0.0000</r>
       <r>  10.2634  0.0000</r>
       <r>  10.2634  0.0000</r>
       <r>  10.2634  0.0000</r>
       <r>  10.2634  0.0000</r>
       <r>  10.7785  0.0000</r>
       <r>  10.7787  0.0000</r>
       <r>  10.7788  0.0000</r>
       <r>  10.7789  0.0000</r>
      </set>
      <set comment="kpoint 196">
       <r>  -1.7031  1.0000</r>
       <r>  -1.6989  1.0000</r>
       <r>  -1.6989  1.0000</r>
       <r>  -1.6985  1.0000</r>
       <r>  -1.6984  1.0000</r>
       <r>  -1.6980  1.0000</r>
       <r>  -1.6980  1.0000</r>
       <r>  -1.6939  1.0000</r>
       <r>   2.5429  1.0000</r>
       <r>   2.5491  1.0000</r>
       <r>   2.5491  1.0000</r>
       <r>   2.5523  1.0000</r>
       <r>   2.5525  1.0000</r>
       <r>   2.5525  1.0000</r>
       <r>   2.5529  1.0000</r>
       <r>   2.5529  1.0000</r>
       <r>   2.5530  1.0000</r>
       <r>   2.5530  1.0000</r>
       <r>   2.5530  1.0000</r>
       <r>   2.5530  1.0000</r>
       <r>   2.5530  1.0000</r>
       <r>   2.5530  1.0000</r>
       <r>   2.5531  1.0000</r>
       <r>   2.5531  1.0000</r>
       <r>   2.5531  1.0000</r>
       <r>   2.5531  1.0000</r>
       <r>   2.5535  1.0000</r>
       <r>   2.5535  1.0000</r>
       <r>   2.5538  1.0000</r>
       <r>   2.5569  1.0000</r>
       <r>   2.5569  1.0000</r>
       <r>   2.5631  1.0000</r>
       <r>   6.6889  1.0000</r>
       <r>   6.6889  1.0000</r>
       <r>   6.6907  1.0000</r>
       <r>   6.6927  1.0000</r>
       <r>   6.6940  1.0000</r>
       <r>   6.6944  1.0000</r>
       <r>   6.6945  1.0000</r>
       <r>   6.6945  1.0000</r>
       <r>   6.6947  1.0000</r>
       <r>   6.6947  1.0000</r>
       <r>   6.6947  1.0000</r>
       <r>   6.6947  1.0000</r>
       <r>   6.6948  1.0000</r>
       <r>   6.6948  1.0000</r>
       <r>   6.6948  1.0000</r>
       <r>   6.6948  1.0000</r>
       <r>   6.6950  1.0000</r>
       <r>   6.6950  1.0000</r>
       <r>   6.6951  1.0000</r>
       <r>   6.6954  1.0000</r>
       <r>   6.6968  1.0000</r>
       <r>   6.6988  1.0000</r>
       <r>   6.7005  1.0000</r>
       <r>   6.7005  1.0000</r>
       <r>  10.7469  0.0000</r>
       <r>  10.7469  0.0000</r>
       <r>  10.7469  0.0000</r>
       <r>  10.7475  0.0000</r>
       <r>  10.7489  0.0000</r>
       <r>  10.7496  0.0000</r>
       <r>  10.7496  0.0000</r>
       <r>  10.7497  0.0000</r>
       <r>  10.9313  0.0000</r>
       <r>  10.9315  0.0000</r>
       <r>  10.9326  0.0000</r>
       <r>  10.9333  0.0000</r>
      </set>
     </set>
    </set>
   </array>
  </eigenvalues>
 </calculation>
 <structure name="finalpos" >
  <crystal>
   <varray name="basis" >
    <v>       8.23610499      0.00000000      0.00000000</v>
    <v>       0.00000000      8.23610499      0.00000000</v>
    <v>       0.00000000      0.00000000      8.23610499</v>
   </varray>
   <i name="volume">    558.68321432</i>
   <varray name="rec_basis" >
    <v>       0.12141662      0.00000000      0.00000000</v>
    <v>       0.00000000      0.12141662      0.00000000</v>
    <v>       0.00000000      0.00000000      0.12141662</v>
   </varray>
  </crystal>
  <varray name="positions" >
   <v>       0.25121417      0.25000000      0.00000000</v>
   <v>       0.75000000      0.25000000      0.00000000</v>
   <v>       0.25000000      0.75000000      0.00000000</v>
   <v>       0.75000000      0.75000000      0.00000000</v>
   <v>       0.25000000      0.25000000      0.50000000</v>
   <v>       0.75000000      0.25000000      0.50000000</v>
   <v>       0.25000000      0.75000000      0.50000000</v>
   <v>       0.75000000      0.75000000      0.50000000</v>
   <v>       0.25000000      0.00000000      0.25000000</v>
   <v>       0.75000000      0.00000000      0.25000000</v>
   <v>       0.25000000      0.50000000      0.25000000</v>
   <v>       0.75000000      0.50000000      0.25000000</v>
   <v>       0.25000000      0.00000000      0.75000000</v>
   <v>       0.75000000      0.00000000      0.75000000</v>
   <v>       0.25000000      0.50000000      0.75000000</v>
   <v>       0.75000000      0.50000000      0.75000000</v>
   <v>       0.00000000      0.25000000      0.25000000</v>
   <v>       0.50000000      0.25000000      0.25000000</v>
   <v>       0.00000000      0.75000000      0.25000000</v>
   <v>       0.50000000      0.75000000      0.25000000</v>
   <v>       0.00000000      0.25000000      0.75000000</v>
   <v>       0.50000000      0.25000000      0.75000000</v>
   <v>       0.00000000      0.75000000      0.75000000</v>
   <v>       0.50000000      0.75000000      0.75000000</v>
   <v>       0.00000000      0.00000000      0.00000000</v>
   <v>       0.50000000      0.00000000      0.00000000</v>
   <v>       0.00000000      0.50000000      0.00000000</v>
   <v>       0.50000000      0.50000000      0.00000000</v>
   <v>       0.00000000      0.00000000      0.50000000</v>
   <v>       0.50000000      0.00000000      0.50000000</v>
   <v>       0.00000000      0.50000000      0.50000000</v>
   <v>       0.50000000      0.50000000      0.50000000</v>
  </varray>
 </structure>
</modeling>
