32   
1    

1    
  0.0100000000000000   0.0000000000000000   0.0000000000000000
  -0.1244986700    0.0000000000    0.0000000000
   0.0062171300   -0.0000000000    0.0000000000
  -0.0010407800   -0.0000000000    0.0000000000
  -0.0018063500    0.0000000000    0.0000000000
  -0.0010407800    0.0000000000    0.0000000000
  -0.0018063500    0.0000000000    0.0000000000
   0.0001342300    0.0000000000    0.0000000000
   0.0000765100    0.0000000000   -0.0000000000
   0.0183670000    0.0226291700    0.0000000000
   0.0178851400   -0.0219225900    0.0000000000
   0.0183670000   -0.0226291700   -0.0000000000
   0.0178851400    0.0219225900   -0.0000000000
   0.0000164200    0.0002301900    0.0000000000
   0.0000153900   -0.0002290100   -0.0000000000
   0.0000164200   -0.0002301900    0.0000000000
   0.0000153900    0.0002290100   -0.0000000000
   0.0183670000   -0.0000000000    0.0226291700
   0.0178851400   -0.0000000000   -0.0219225900
   0.0000164200   -0.0000000000    0.0002301900
   0.0000153900    0.0000000000   -0.0002290100
   0.0183670000    0.0000000000   -0.0226291700
   0.0178851400   -0.0000000000    0.0219225900
   0.0000164200    0.0000000000   -0.0002301900
   0.0000153900    0.0000000000    0.0002290100
  -0.0059624800   -0.0000371000   -0.0000371000
   0.0006197900    0.0000006700    0.0000006700
  -0.0059624800    0.0000371000   -0.0000371000
   0.0006197900   -0.0000006700    0.0000006700
  -0.0059624800   -0.0000371000    0.0000371000
   0.0006197900    0.0000006700   -0.0000006700
  -0.0059624800    0.0000371000    0.0000371000
   0.0006197900   -0.0000006700   -0.0000006700
