mesh: [    48,    48,    48 ]
nqpoint: 2600   
reciprocal_lattice:
- [   0.25225711,   0.00000000,   0.00000000 ] # a*
- [   0.00000000,   0.25225711,   0.00000000 ] # b*
- [   0.00000000,   0.00000000,   0.25225711 ] # c*
natom:   4      
lattice:
- [     3.964209307199124,     0.000000000000000,     0.000000000000000 ] # a
- [     0.000000000000000,     3.964209307199124,     0.000000000000000 ] # b
- [     0.000000000000000,     0.000000000000000,     3.964209307199124 ] # c
points:
- symbol: Au # 1
  coordinates: [  0.000000000000000,  0.000000000000000,  0.000000000000000 ]
  mass: 196.966569
- symbol: Au # 2
  coordinates: [  0.500000000000000,  0.500000000000000,  0.000000000000000 ]
  mass: 196.966569
- symbol: Au # 3
  coordinates: [  0.500000000000000,  0.000000000000000,  0.500000000000000 ]
  mass: 196.966569
- symbol: Au # 4
  coordinates: [  0.000000000000000,  0.500000000000000,  0.500000000000000 ]
  mass: 196.966569
phonon:
- q-position: [    0.0104167,    0.0104167,    0.0104167 ]
  weight: 8    
  band:
  - # 1
    frequency:     0.0670072481
  - # 2
    frequency:     0.0670072481
  - # 3
    frequency:     0.2009061018
  - # 4
    frequency:     3.5629805202
  - # 5
    frequency:     3.5629805202
  - # 6
    frequency:     3.5629805202
  - # 7
    frequency:     3.5663333311
  - # 8
    frequency:     3.5663333311
  - # 9
    frequency:     3.5663333311
  - # 10
    frequency:     5.9996105899
  - # 11
    frequency:     5.9996105899
  - # 12
    frequency:     5.9996105899

- q-position: [    0.0312500,    0.0104167,    0.0104167 ]
  weight: 24   
  band:
  - # 1
    frequency:     0.1407196618
  - # 2
    frequency:     0.1619237381
  - # 3
    frequency:     0.3670855439
  - # 4
    frequency:     3.5584009791
  - # 5
    frequency:     3.5617437404
  - # 6
    frequency:     3.5618954448
  - # 7
    frequency:     3.5618954448
  - # 8
    frequency:     3.5736554928
  - # 9
    frequency:     3.5736554928
  - # 10
    frequency:     5.9941082536
  - # 11
    frequency:     5.9949813054
  - # 12
    frequency:     5.9949813054

- q-position: [    0.0520833,    0.0104167,    0.0104167 ]
  weight: 24   
  band:
  - # 1
    frequency:     0.2472808554
  - # 2
    frequency:     0.2639217808
  - # 3
    frequency:     0.5588084758
  - # 4
    frequency:     3.5492536776
  - # 5
    frequency:     3.5525763785
  - # 6
    frequency:     3.5616007893
  - # 7
    frequency:     3.5616007893
  - # 8
    frequency:     3.5863752583
  - # 9
    frequency:     3.5863752583
  - # 10
    frequency:     5.9831002516
  - # 11
    frequency:     5.9857379859
  - # 12
    frequency:     5.9857379859

- q-position: [    0.0729167,    0.0104167,    0.0104167 ]
  weight: 24   
  band:
  - # 1
    frequency:     0.3543193355
  - # 2
    frequency:     0.3670812182
  - # 3
    frequency:     0.7581667270
  - # 4
    frequency:     3.5355621100
  - # 5
    frequency:     3.5388548159
  - # 6
    frequency:     3.5616130737
  - # 7
    frequency:     3.5616130737
  - # 8
    frequency:     3.6048791208
  - # 9
    frequency:     3.6048791208
  - # 10
    frequency:     5.9665800307
  - # 11
    frequency:     5.9719110905
  - # 12
    frequency:     5.9719110905

- q-position: [    0.0937500,    0.0104167,    0.0104167 ]
  weight: 24   
  band:
  - # 1
    frequency:     0.4604620744
  - # 2
    frequency:     0.4705602617
  - # 3
    frequency:     0.9600804625
  - # 4
    frequency:     3.5173613498
  - # 5
    frequency:     3.5206142385
  - # 6
    frequency:     3.5617749686
  - # 7
    frequency:     3.5617749686
  - # 8
    frequency:     3.6291817040
  - # 9
    frequency:     3.6291817040
  - # 10
    frequency:     5.9445380226
  - # 11
    frequency:     5.9535462095
  - # 12
    frequency:     5.9535462095

- q-position: [    0.1145833,    0.0104167,    0.0104167 ]
  weight: 24   
  band:
  - # 1
    frequency:     0.5658845196
  - # 2
    frequency:     0.5740957739
  - # 3
    frequency:     1.1624654442
  - # 4
    frequency:     3.4946978497
  - # 5
    frequency:     3.4979012440
  - # 6
    frequency:     3.5620302820
  - # 7
    frequency:     3.5620302820
  - # 8
    frequency:     3.6591539139
  - # 9
    frequency:     3.6591539139
  - # 10
    frequency:     5.9169619539
  - # 11
    frequency:     5.9307039467
  - # 12
    frequency:     5.9307039467

- q-position: [    0.1354167,    0.0104167,    0.0104167 ]
  weight: 24   
  band:
  - # 1
    frequency:     0.6707512247
  - # 2
    frequency:     0.6775603520
  - # 3
    frequency:     1.3642339512
  - # 4
    frequency:     3.4676291757
  - # 5
    frequency:     3.4707735730
  - # 6
    frequency:     3.5623537355
  - # 7
    frequency:     3.5623537355
  - # 8
    frequency:     3.6945970510
  - # 9
    frequency:     3.6945970510
  - # 10
    frequency:     5.8838372526
  - # 11
    frequency:     5.9034597664
  - # 12
    frequency:     5.9034597664

- q-position: [    0.1562500,    0.0104167,    0.0104167 ]
  weight: 24   
  band:
  - # 1
    frequency:     0.7751473869
  - # 2
    frequency:     0.7808692572
  - # 3
    frequency:     1.5646970453
  - # 4
    frequency:     3.4362236785
  - # 5
    frequency:     3.4392997753
  - # 6
    frequency:     3.5627304614
  - # 7
    frequency:     3.5627304614
  - # 8
    frequency:     3.7352677379
  - # 9
    frequency:     3.7352677379
  - # 10
    frequency:     5.8451475452
  - # 11
    frequency:     5.8719038045
  - # 12
    frequency:     5.8719038045

- q-position: [    0.1770833,    0.0104167,    0.0104167 ]
  weight: 24   
  band:
  - # 1
    frequency:     0.8791037959
  - # 2
    frequency:     0.8839521261
  - # 3
    frequency:     1.7633505264
  - # 4
    frequency:     3.4005601023
  - # 5
    frequency:     3.4035588145
  - # 6
    frequency:     3.5631493726
  - # 7
    frequency:     3.5631493726
  - # 8
    frequency:     3.7808892932
  - # 9
    frequency:     3.7808892932
  - # 10
    frequency:     5.8008752384
  - # 11
    frequency:     5.8361406484
  - # 12
    frequency:     5.8361406484

- q-position: [    0.1979167,    0.0104167,    0.0104167 ]
  weight: 24   
  band:
  - # 1
    frequency:     0.9826164688
  - # 2
    frequency:     0.9867421144
  - # 3
    frequency:     1.9597871966
  - # 4
    frequency:     3.3607271343
  - # 5
    frequency:     3.3636396111
  - # 6
    frequency:     3.5636007847
  - # 7
    frequency:     3.5636007847
  - # 8
    frequency:     3.8311589583
  - # 9
    frequency:     3.8311589583
  - # 10
    frequency:     5.7510021766
  - # 11
    frequency:     5.7962890872
  - # 12
    frequency:     5.7962890872

- q-position: [    0.2187500,    0.0104167,    0.0104167 ]
  weight: 24   
  band:
  - # 1
    frequency:     1.0856579129
  - # 2
    frequency:     1.0891709702
  - # 3
    frequency:     2.1536569843
  - # 4
    frequency:     3.3168228971
  - # 5
    frequency:     3.3196405293
  - # 6
    frequency:     3.5640755102
  - # 7
    frequency:     3.5640755102
  - # 8
    frequency:     3.8857535721
  - # 9
    frequency:     3.8857535721
  - # 10
    frequency:     5.6955103670
  - # 11
    frequency:     5.7524818358
  - # 12
    frequency:     5.7524818358

- q-position: [    0.2395833,    0.0104167,    0.0104167 ]
  weight: 24   
  band:
  - # 1
    frequency:     1.1881833743
  - # 2
    frequency:     1.1911664966
  - # 3
    frequency:     2.3446473437
  - # 4
    frequency:     3.2689543869
  - # 5
    frequency:     3.2716688084
  - # 6
    frequency:     3.5645645269
  - # 7
    frequency:     3.5645645269
  - # 8
    frequency:     3.9443344405
  - # 9
    frequency:     3.9443344405
  - # 10
    frequency:     5.6343827625
  - # 11
    frequency:     5.7048652376
  - # 12
    frequency:     5.7048652376

- q-position: [    0.2604167,    0.0104167,    0.0104167 ]
  weight: 24   
  band:
  - # 1
    frequency:     1.2901343726
  - # 2
    frequency:     1.2926511254
  - # 3
    frequency:     2.5324730378
  - # 4
    frequency:     3.2172368604
  - # 5
    frequency:     3.2198399437
  - # 6
    frequency:     3.5650588894
  - # 7
    frequency:     3.5650588894
  - # 8
    frequency:     4.0065516183
  - # 9
    frequency:     4.0065516183
  - # 10
    frequency:     5.5676040921
  - # 11
    frequency:     5.6535989483
  - # 12
    frequency:     5.6535989483

- q-position: [    0.2812500,    0.0104167,    0.0104167 ]
  weight: 24   
  band:
  - # 1
    frequency:     1.3914407804
  - # 2
    frequency:     1.3935410789
  - # 3
    frequency:     2.7168705819
  - # 4
    frequency:     3.1617931751
  - # 5
    frequency:     3.1642770191
  - # 6
    frequency:     3.5655497551
  - # 7
    frequency:     3.5655497551
  - # 8
    frequency:     4.0720476604
  - # 9
    frequency:     4.0720476604
  - # 10
    frequency:     5.4951617290
  - # 11
    frequency:     5.5988556069
  - # 12
    frequency:     5.5988556069

- q-position: [    0.3020833,    0.0104167,    0.0104167 ]
  weight: 24   
  band:
  - # 1
    frequency:     1.4920221218
  - # 2
    frequency:     1.4937458849
  - # 3
    frequency:     2.8975951290
  - # 4
    frequency:     3.1027530862
  - # 5
    frequency:     3.1051099970
  - # 6
    frequency:     3.5660284637
  - # 7
    frequency:     3.5660284637
  - # 8
    frequency:     4.1404608642
  - # 9
    frequency:     4.1404608642
  - # 10
    frequency:     5.4170465841
  - # 11
    frequency:     5.5408204968
  - # 12
    frequency:     5.5408204968

- q-position: [    0.3229167,    0.0104167,    0.0104167 ]
  weight: 24   
  band:
  - # 1
    frequency:     1.5917884535
  - # 2
    frequency:     1.5931681310
  - # 3
    frequency:     3.0402525043
  - # 4
    frequency:     3.0424749689
  - # 5
    frequency:     3.0744186885
  - # 6
    frequency:     3.5664866437
  - # 7
    frequency:     3.5664866437
  - # 8
    frequency:     4.2114280244
  - # 9
    frequency:     4.2114280244
  - # 10
    frequency:     5.3332540154
  - # 11
    frequency:     5.4796912045
  - # 12
    frequency:     5.4796912045

- q-position: [    0.3437500,    0.0104167,    0.0104167 ]
  weight: 24   
  band:
  - # 1
    frequency:     1.6906410328
  - # 2
    frequency:     1.6917033973
  - # 3
    frequency:     2.9744327197
  - # 4
    frequency:     2.9765133717
  - # 5
    frequency:     3.2471290891
  - # 6
    frequency:     3.5669163299
  - # 7
    frequency:     3.5669163299
  - # 8
    frequency:     4.2845867311
  - # 9
    frequency:     4.2845867311
  - # 10
    frequency:     5.2437847420
  - # 11
    frequency:     5.4156772784
  - # 12
    frequency:     5.4156772784

- q-position: [    0.3645833,    0.0104167,    0.0104167 ]
  weight: 24   
  band:
  - # 1
    frequency:     1.7884728853
  - # 2
    frequency:     1.7892403329
  - # 3
    frequency:     2.9054395975
  - # 4
    frequency:     2.9073711750
  - # 5
    frequency:     3.4155293591
  - # 6
    frequency:     3.5673100830
  - # 7
    frequency:     3.5673100830
  - # 8
    frequency:     4.3595772506
  - # 9
    frequency:     4.3595772506
  - # 10
    frequency:     5.1486457518
  - # 11
    frequency:     5.3489998968
  - # 12
    frequency:     5.3489998968

- q-position: [    0.3854167,    0.0104167,    0.0104167 ]
  weight: 24   
  band:
  - # 1
    frequency:     1.8851693412
  - # 2
    frequency:     1.8856608547
  - # 3
    frequency:     2.8334227494
  - # 4
    frequency:     2.8351980446
  - # 5
    frequency:     3.5676611057
  - # 6
    frequency:     3.5676611057
  - # 7
    frequency:     3.5794373357
  - # 8
    frequency:     4.4360440326
  - # 9
    frequency:     4.4360440326
  - # 10
    frequency:     5.0478511930
  - # 11
    frequency:     5.2798915543
  - # 12
    frequency:     5.2798915543

- q-position: [    0.4062500,    0.0104167,    0.0104167 ]
  weight: 24   
  band:
  - # 1
    frequency:     1.9806085772
  - # 2
    frequency:     1.9808404529
  - # 3
    frequency:     2.7585346888
  - # 4
    frequency:     2.7601464873
  - # 5
    frequency:     3.5679633512
  - # 6
    frequency:     3.5679633512
  - # 7
    frequency:     3.7386853894
  - # 8
    frequency:     4.5136368806
  - # 9
    frequency:     4.5136368806
  - # 10
    frequency:     4.9414232400
  - # 11
    frequency:     5.2085957846
  - # 12
    frequency:     5.2085957846

- q-position: [    0.4270833,    0.0104167,    0.0104167 ]
  weight: 24   
  band:
  - # 1
    frequency:     2.0746485914
  - # 2
    frequency:     2.0746621850
  - # 3
    frequency:     2.6809299734
  - # 4
    frequency:     2.6823709845
  - # 5
    frequency:     3.5682116211
  - # 6
    frequency:     3.5682116211
  - # 7
    frequency:     3.8931201930
  - # 8
    frequency:     4.5920117846
  - # 9
    frequency:     4.5920117846
  - # 10
    frequency:     4.8293929240
  - # 11
    frequency:     5.1353669790
  - # 12
    frequency:     5.1353669790

- q-position: [    0.4479167,    0.0104167,    0.0104167 ]
  weight: 24   
  band:
  - # 1
    frequency:     2.1669491925
  - # 2
    frequency:     2.1671957786
  - # 3
    frequency:     2.6007643448
  - # 4
    frequency:     2.6020271191
  - # 5
    frequency:     3.5684016504
  - # 6
    frequency:     3.5684016504
  - # 7
    frequency:     4.0426024916
  - # 8
    frequency:     4.6708312377
  - # 9
    frequency:     4.6708312377
  - # 10
    frequency:     4.7118009215
  - # 11
    frequency:     5.0604705262
  - # 12
    frequency:     5.0604705262

- q-position: [    0.4687500,    0.0104167,    0.0104167 ]
  weight: 24   
  band:
  - # 1
    frequency:     2.2576011971
  - # 2
    frequency:     2.2580696450
  - # 3
    frequency:     2.5181938694
  - # 4
    frequency:     2.5192707035
  - # 5
    frequency:     3.5685301771
  - # 6
    frequency:     3.5685301771
  - # 7
    frequency:     4.1870068454
  - # 8
    frequency:     4.5886982915
  - # 9
    frequency:     4.7497626411
  - # 10
    frequency:     4.7497626411
  - # 11
    frequency:     4.9841847159
  - # 12
    frequency:     4.9841847159

- q-position: [    0.4895833,    0.0104167,    0.0104167 ]
  weight: 24   
  band:
  - # 1
    frequency:     2.3464591912
  - # 2
    frequency:     2.3471394380
  - # 3
    frequency:     2.4333740895
  - # 4
    frequency:     2.4342569138
  - # 5
    frequency:     3.5685949963
  - # 6
    frequency:     3.5685949963
  - # 7
    frequency:     4.3262213260
  - # 8
    frequency:     4.4601471571
  - # 9
    frequency:     4.8284503843
  - # 10
    frequency:     4.8284503843
  - # 11
    frequency:     4.9068288579
  - # 12
    frequency:     4.9068288579

- q-position: [    0.0312500,    0.0312500,    0.0104167 ]
  weight: 24   
  band:
  - # 1
    frequency:     0.1367923317
  - # 2
    frequency:     0.2150125531
  - # 3
    frequency:     0.4970407430
  - # 4
    frequency:     3.5558394324
  - # 5
    frequency:     3.5573085804
  - # 6
    frequency:     3.5573085804
  - # 7
    frequency:     3.5690532741
  - # 8
    frequency:     3.5690532741
  - # 9
    frequency:     3.5858762345
  - # 10
    frequency:     5.9895246651
  - # 11
    frequency:     5.9895246651
  - # 12
    frequency:     5.9903520257

- q-position: [    0.0520833,    0.0312500,    0.0104167 ]
  weight: 48   
  band:
  - # 1
    frequency:     0.2111370422
  - # 2
    frequency:     0.2993760930
  - # 3
    frequency:     0.6630695206
  - # 4
    frequency:     3.5481465124
  - # 5
    frequency:     3.5513448858
  - # 6
    frequency:     3.5569809658
  - # 7
    frequency:     3.5598608616
  - # 8
    frequency:     3.5817659284
  - # 9
    frequency:     3.6026527418
  - # 10
    frequency:     5.9786079050
  - # 11
    frequency:     5.9803727315
  - # 12
    frequency:     5.9811087217

- q-position: [    0.0729167,    0.0312500,    0.0104167 ]
  weight: 48   
  band:
  - # 1
    frequency:     0.3149263922
  - # 2
    frequency:     0.3934474477
  - # 3
    frequency:     0.8433804397
  - # 4
    frequency:     3.5344324932
  - # 5
    frequency:     3.5461022364
  - # 6
    frequency:     3.5483146075
  - # 7
    frequency:     3.5569364351
  - # 8
    frequency:     3.6002660874
  - # 9
    frequency:     3.6239882718
  - # 10
    frequency:     5.9622241760
  - # 11
    frequency:     5.9666828990
  - # 12
    frequency:     5.9672818645

- q-position: [    0.0937500,    0.0312500,    0.0104167 ]
  weight: 48   
  band:
  - # 1
    frequency:     0.4239682168
  - # 2
    frequency:     0.4915441841
  - # 3
    frequency:     1.0310953881
  - # 4
    frequency:     3.5162012262
  - # 5
    frequency:     3.5278131986
  - # 6
    frequency:     3.5463771610
  - # 7
    frequency:     3.5570190500
  - # 8
    frequency:     3.6245665043
  - # 9
    frequency:     3.6501159265
  - # 10
    frequency:     5.9403634780
  - # 11
    frequency:     5.9485007377
  - # 12
    frequency:     5.9489170621

- q-position: [    0.1145833,    0.0312500,    0.0104167 ]
  weight: 48   
  band:
  - # 1
    frequency:     0.5332877756
  - # 2
    frequency:     0.5915705735
  - # 3
    frequency:     1.2227185712
  - # 4
    frequency:     3.4934986584
  - # 5
    frequency:     3.5050411627
  - # 6
    frequency:     3.5452331789
  - # 7
    frequency:     3.5571729227
  - # 8
    frequency:     3.6545371680
  - # 9
    frequency:     3.6811552639
  - # 10
    frequency:     5.9130129836
  - # 11
    frequency:     5.9258868226
  - # 12
    frequency:     5.9260749426

- q-position: [    0.1354167,    0.0312500,    0.0104167 ]
  weight: 48   
  band:
  - # 1
    frequency:     0.6418476493
  - # 2
    frequency:     0.6925901583
  - # 3
    frequency:     1.4161425963
  - # 4
    frequency:     3.4663817040
  - # 5
    frequency:     3.4778448876
  - # 6
    frequency:     3.5446659414
  - # 7
    frequency:     3.5573724994
  - # 8
    frequency:     3.6899789284
  - # 9
    frequency:     3.7171053462
  - # 10
    frequency:     5.8801574624
  - # 11
    frequency:     5.8988310006
  - # 12
    frequency:     5.8989165786

- q-position: [    0.1562500,    0.0312500,    0.0104167 ]
  weight: 48   
  band:
  - # 1
    frequency:     0.7494815575
  - # 2
    frequency:     0.7941130324
  - # 3
    frequency:     1.6099806792
  - # 4
    frequency:     3.4349179025
  - # 5
    frequency:     3.4462941409
  - # 6
    frequency:     3.5445228062
  - # 7
    frequency:     3.5576023503
  - # 8
    frequency:     3.7306481573
  - # 9
    frequency:     3.7578674527
  - # 10
    frequency:     5.8417798005
  - # 11
    frequency:     5.8672754092
  - # 12
    frequency:     5.8676800902

- q-position: [    0.1770833,    0.0312500,    0.0104167 ]
  weight: 48   
  band:
  - # 1
    frequency:     0.8562184577
  - # 2
    frequency:     0.8958454613
  - # 3
    frequency:     1.8032558695
  - # 4
    frequency:     3.3991850132
  - # 5
    frequency:     3.4104693027
  - # 6
    frequency:     3.5446960235
  - # 7
    frequency:     3.5578506767
  - # 8
    frequency:     3.7762680117
  - # 9
    frequency:     3.8032687245
  - # 10
    frequency:     5.7978616067
  - # 11
    frequency:     5.8315128002
  - # 12
    frequency:     5.8322818775

- q-position: [    0.1979167,    0.0312500,    0.0104167 ]
  weight: 48   
  band:
  - # 1
    frequency:     0.9621132726
  - # 2
    frequency:     0.9975880503
  - # 3
    frequency:     1.9952375238
  - # 4
    frequency:     3.3592705481
  - # 5
    frequency:     3.3704609078
  - # 6
    frequency:     3.5451080261
  - # 7
    frequency:     3.5581070078
  - # 8
    frequency:     3.8265356161
  - # 9
    frequency:     3.8530814551
  - # 10
    frequency:     5.7483838994
  - # 11
    frequency:     5.7916620156
  - # 12
    frequency:     5.7928406439

- q-position: [    0.2187500,    0.0312500,    0.0104167 ]
  weight: 48   
  band:
  - # 1
    frequency:     1.0672041350
  - # 2
    frequency:     1.0991892500
  - # 3
    frequency:     2.1853502923
  - # 4
    frequency:     3.3152712469
  - # 5
    frequency:     3.3263691311
  - # 6
    frequency:     3.5457012478
  - # 7
    frequency:     3.5583613475
  - # 8
    frequency:     3.8811277164
  - # 9
    frequency:     3.9070378053
  - # 10
    frequency:     5.6933278617
  - # 11
    frequency:     5.7478558335
  - # 12
    frequency:     5.7494889967

- q-position: [    0.2395833,    0.0312500,    0.0104167 ]
  weight: 48   
  band:
  - # 1
    frequency:     1.1715040420
  - # 2
    frequency:     1.2005220902
  - # 3
    frequency:     2.3731215118
  - # 4
    frequency:     3.2672924986
  - # 5
    frequency:     3.2783032177
  - # 6
    frequency:     3.5464313925
  - # 7
    frequency:     3.5586038842
  - # 8
    frequency:     3.9397055379
  - # 9
    frequency:     3.9648408738
  - # 10
    frequency:     5.6326756588
  - # 11
    frequency:     5.7002406731
  - # 12
    frequency:     5.7023731447

- q-position: [    0.2604167,    0.0312500,    0.0104167 ]
  weight: 48   
  band:
  - # 1
    frequency:     1.2750017927
  - # 2
    frequency:     1.3014716591
  - # 3
    frequency:     2.5581498203
  - # 4
    frequency:     3.2154477133
  - # 5
    frequency:     3.2263808596
  - # 6
    frequency:     3.5472630831
  - # 7
    frequency:     3.5588249429
  - # 8
    frequency:     4.0019190581
  - # 9
    frequency:     4.0261730898
  - # 10
    frequency:     5.5664113036
  - # 11
    frequency:     5.6489762839
  - # 12
    frequency:     5.6516525790

- q-position: [    0.2812500,    0.0312500,    0.0104167 ]
  weight: 48   
  band:
  - # 1
    frequency:     1.3776649720
  - # 2
    frequency:     1.4019279689
  - # 3
    frequency:     2.7400858947
  - # 4
    frequency:     3.1598576501
  - # 5
    frequency:     3.1707275221
  - # 6
    frequency:     3.5481670801
  - # 7
    frequency:     3.5590150490
  - # 8
    frequency:     4.0674107472
  - # 9
    frequency:     4.0907026617
  - # 10
    frequency:     5.4945215627
  - # 11
    frequency:     5.5942354234
  - # 12
    frequency:     5.5974997401

- q-position: [    0.3020833,    0.0312500,    0.0104167 ]
  weight: 48   
  band:
  - # 1
    frequency:     1.4794429381
  - # 2
    frequency:     1.5017817209
  - # 3
    frequency:     2.9186203220
  - # 4
    frequency:     3.1006497070
  - # 5
    frequency:     3.1114757225
  - # 6
    frequency:     3.5491185157
  - # 7
    frequency:     3.5591650466
  - # 8
    frequency:     4.1358187958
  - # 9
    frequency:     4.1580885953
  - # 10
    frequency:     5.4169968901
  - # 11
    frequency:     5.5362035320
  - # 12
    frequency:     5.5400996796

- q-position: [    0.3229167,    0.0312500,    0.0104167 ]
  weight: 48   
  band:
  - # 1
    frequency:     1.5802693399
  - # 2
    frequency:     1.6009217281
  - # 3
    frequency:     3.0379571798
  - # 4
    frequency:     3.0487642623
  - # 5
    frequency:     3.0934757785
  - # 6
    frequency:     3.5500957833
  - # 7
    frequency:     3.5592662418
  - # 8
    frequency:     4.2067798462
  - # 9
    frequency:     4.2279846253
  - # 10
    frequency:     5.3338323791
  - # 11
    frequency:     5.4750784136
  - # 12
    frequency:     5.4796497232

- q-position: [    0.3437500,    0.0312500,    0.0104167 ]
  weight: 48   
  band:
  - # 1
    frequency:     1.6800641523
  - # 2
    frequency:     1.6992333433
  - # 3
    frequency:     2.9719184942
  - # 4
    frequency:     2.9827374178
  - # 5
    frequency:     3.2644018718
  - # 6
    frequency:     3.5510798473
  - # 7
    frequency:     3.5593105577
  - # 8
    frequency:     4.2799312494
  - # 9
    frequency:     4.3000422942
  - # 10
    frequency:     5.2450287212
  - # 11
    frequency:     5.4110699365
  - # 12
    frequency:     5.4163591501

- q-position: [    0.3645833,    0.0312500,    0.0104167 ]
  weight: 48   
  band:
  - # 1
    frequency:     1.7787353295
  - # 2
    frequency:     1.7965975300
  - # 3
    frequency:     2.9026764198
  - # 4
    frequency:     2.9135440931
  - # 5
    frequency:     3.4311716562
  - # 6
    frequency:     3.5520538235
  - # 7
    frequency:     3.5592906904
  - # 8
    frequency:     4.3549128712
  - # 9
    frequency:     4.3739133334
  - # 10
    frequency:     5.1505931636
  - # 11
    frequency:     5.3443997825
  - # 12
    frequency:     5.3504489119

- q-position: [    0.3854167,    0.0312500,    0.0104167 ]
  weight: 48   
  band:
  - # 1
    frequency:     1.8761801880
  - # 2
    frequency:     1.8928903647
  - # 3
    frequency:     2.8303772669
  - # 4
    frequency:     2.8413369413
  - # 5
    frequency:     3.5530027334
  - # 6
    frequency:     3.5592002597
  - # 7
    frequency:     3.5935792169
  - # 8
    frequency:     4.4313684458
  - # 9
    frequency:     4.4492514211
  - # 10
    frequency:     5.0505404542
  - # 11
    frequency:     5.2753013053
  - # 12
    frequency:     5.2821514434

- q-position: [    0.4062500,    0.0312500,    0.0104167 ]
  weight: 48   
  band:
  - # 1
    frequency:     1.9722866083
  - # 2
    frequency:     1.9879828416
  - # 3
    frequency:     2.7551700711
  - # 4
    frequency:     2.7662714639
  - # 5
    frequency:     3.5539133674
  - # 6
    frequency:     3.5590339514
  - # 7
    frequency:     3.7514379378
  - # 8
    frequency:     4.5089463961
  - # 9
    frequency:     4.5257132658
  - # 10
    frequency:     4.9448937672
  - # 11
    frequency:     5.2040196609
  - # 12
    frequency:     5.2117107040

- q-position: [    0.4270833,    0.0312500,    0.0104167 ]
  weight: 48   
  band:
  - # 1
    frequency:     2.0669341243
  - # 2
    frequency:     2.0817408994
  - # 3
    frequency:     2.6772057638
  - # 4
    frequency:     2.6885050994
  - # 5
    frequency:     3.5547742159
  - # 6
    frequency:     3.5587876472
  - # 7
    frequency:     3.9045792091
  - # 8
    frequency:     4.5872997342
  - # 9
    frequency:     4.6029585639
  - # 10
    frequency:     4.8336856024
  - # 11
    frequency:     5.1308127482
  - # 12
    frequency:     5.1393828897

- q-position: [    0.4479167,    0.0312500,    0.0104167 ]
  weight: 48   
  band:
  - # 1
    frequency:     2.1599949452
  - # 2
    frequency:     2.1740256159
  - # 3
    frequency:     2.5966363287
  - # 4
    frequency:     2.6081963145
  - # 5
    frequency:     3.5555754393
  - # 6
    frequency:     3.5584585398
  - # 7
    frequency:     4.0528514105
  - # 8
    frequency:     4.6660832931
  - # 9
    frequency:     4.6806466051
  - # 10
    frequency:     4.7169586523
  - # 11
    frequency:     5.0559552606
  - # 12
    frequency:     5.0654396154

- q-position: [    0.4687500,    0.0312500,    0.0104167 ]
  weight: 48   
  band:
  - # 1
    frequency:     2.2513349432
  - # 2
    frequency:     2.2646935347
  - # 3
    frequency:     2.5136139389
  - # 4
    frequency:     2.5255037151
  - # 5
    frequency:     3.5563088567
  - # 6
    frequency:     3.5580452318
  - # 7
    frequency:     4.1961190646
  - # 8
    frequency:     4.5947666327
  - # 9
    frequency:     4.7449374397
  - # 10
    frequency:     4.7584144066
  - # 11
    frequency:     4.9797610247
  - # 12
    frequency:     4.9901844611

- q-position: [    0.4895833,    0.0312500,    0.0104167 ]
  weight: 48   
  band:
  - # 1
    frequency:     2.3408146217
  - # 2
    frequency:     2.3535971011
  - # 3
    frequency:     2.4282900752
  - # 4
    frequency:     2.4405851898
  - # 5
    frequency:     3.5569679421
  - # 6
    frequency:     3.5575478166
  - # 7
    frequency:     4.3342620856
  - # 8
    frequency:     4.4671750755
  - # 9
    frequency:     4.8232984738
  - # 10
    frequency:     4.8355410285
  - # 11
    frequency:     4.9029190204
  - # 12
    frequency:     4.9141427143

- q-position: [    0.0520833,    0.0520833,    0.0104167 ]
  weight: 24   
  band:
  - # 1
    frequency:     0.2179326423
  - # 2
    frequency:     0.3649102758
  - # 3
    frequency:     0.8088515614
  - # 4
    frequency:     3.5416592717
  - # 5
    frequency:     3.5477528580
  - # 6
    frequency:     3.5477528580
  - # 7
    frequency:     3.5725596078
  - # 8
    frequency:     3.5725596078
  - # 9
    frequency:     3.6243370525
  - # 10
    frequency:     5.9696384242
  - # 11
    frequency:     5.9696384242
  - # 12
    frequency:     5.9718654606

- q-position: [    0.0729167,    0.0520833,    0.0104167 ]
  weight: 48   
  band:
  - # 1
    frequency:     0.2851653371
  - # 2
    frequency:     0.4456089632
  - # 3
    frequency:     0.9721847992
  - # 4
    frequency:     3.5337430048
  - # 5
    frequency:     3.5339394775
  - # 6
    frequency:     3.5475947580
  - # 7
    frequency:     3.5587808968
  - # 8
    frequency:     3.5910526414
  - # 9
    frequency:     3.6501411060
  - # 10
    frequency:     5.9535275873
  - # 11
    frequency:     5.9562221929
  - # 12
    frequency:     5.9580386975

- q-position: [    0.0937500,    0.0520833,    0.0104167 ]
  weight: 48   
  band:
  - # 1
    frequency:     0.3813900768
  - # 2
    frequency:     0.5345072136
  - # 3
    frequency:     1.1451773944
  - # 4
    frequency:     3.5155751729
  - # 5
    frequency:     3.5275345256
  - # 6
    frequency:     3.5404665017
  - # 7
    frequency:     3.5475191183
  - # 8
    frequency:     3.6153489784
  - # 9
    frequency:     3.6799966207
  - # 10
    frequency:     5.9320293026
  - # 11
    frequency:     5.9384046829
  - # 12
    frequency:     5.9396740764

- q-position: [    0.1145833,    0.0520833,    0.0104167 ]
  weight: 48   
  band:
  - # 1
    frequency:     0.4876349751
  - # 2
    frequency:     0.6280396932
  - # 3
    frequency:     1.3240520114
  - # 4
    frequency:     3.4927054299
  - # 5
    frequency:     3.5176650031
  - # 6
    frequency:     3.5228212252
  - # 7
    frequency:     3.5474707256
  - # 8
    frequency:     3.6453167970
  - # 9
    frequency:     3.7139470543
  - # 10
    frequency:     5.9051295637
  - # 11
    frequency:     5.9162463323
  - # 12
    frequency:     5.9168322737

- q-position: [    0.1354167,    0.0520833,    0.0104167 ]
  weight: 48   
  band:
  - # 1
    frequency:     0.5969709334