32   
1    

1    
  0.0100000000000000   0.0000000000000000   0.0000000000000000
  -0.0249387300    0.0000000000    0.0000000000
   0.0012620300   -0.0000000000   -0.0000000000
  -0.0004013800   -0.0000000000   -0.0000000000
   0.0003375700    0.0000000000   -0.0000000000
  -0.0004013800   -0.0000000000   -0.0000000000
   0.0003375700    0.0000000000    0.0000000000
   0.0000834900    0.0000000000    0.0000000000
  -0.0000743100   -0.0000000000    0.0000000000
  -0.0011078000    0.0000107700   -0.0000107700
  -0.0005589900    0.0000024300   -0.0000024300
  -0.0011078000   -0.0000107700   -0.0000107700
  -0.0005589900   -0.0000024300   -0.0000024300
  -0.0011078000    0.0000107700    0.0000107700
  -0.0005589900    0.0000024300    0.0000024300
  -0.0011078000   -0.0000107700    0.0000107700
  -0.0005589900   -0.0000024300    0.0000024300
   0.0039673100   -0.0000000000   -0.0040230900
   0.0040600000   -0.0000000000    0.0041512800
  -0.0002046900   -0.0000000000    0.0005739700
  -0.0002070600    0.0000000000   -0.0005722000
   0.0039673100    0.0000000000    0.0040230900
   0.0040600000    0.0000000000   -0.0041512800
  -0.0002046900   -0.0000000000   -0.0005739700
  -0.0002070600   -0.0000000000    0.0005722000
   0.0039673100    0.0040230900   -0.0000000000
   0.0040600000   -0.0041512800   -0.0000000000
   0.0039673100   -0.0040230900    0.0000000000
   0.0040600000    0.0041512800   -0.0000000000
  -0.0002046900   -0.0005739700   -0.0000000000
  -0.0002070600    0.0005722000    0.0000000000
  -0.0002046900    0.0005739700    0.0000000000
  -0.0002070600   -0.0005722000   -0.0000000000
