<?xml version="1.0" encoding="ISO-8859-1"?>
<modeling>
 <generator>
  <i name="program" type="string">vasp</i>
  <i name="version" type="string">4.6.28 </i>
  <i name="subversion" type="string">25Jul05 complex  parallel</i>
  <i name="platform" type="string">LinuxIFC</i>
  <i name="date" type="string">2016 10 19</i>
  <i name="time" type="string">12:33:34</i>
 </generator>
 <incar>
  <i type="string" name="PREC">accurate</i>
  <i type="int" name="IALGO">    38</i>
  <i name="EDIFF">      0.00000001</i>
  <i type="int" name="IBRION">    -1</i>
  <i name="ENCUT">    500.00000000</i>
  <i type="logical" name="LREAL"> F  </i>
  <i type="int" name="ISMEAR">     0</i>
  <i name="SIGMA">      0.01000000</i>
  <i type="logical" name="LWAVE"> F  </i>
  <i type="logical" name="LCHARG"> F  </i>
 </incar>
 <kpoints>
  <generation param="Auto">
   <i name="subdivisionlength">     50.00000000</i>
   <v type="int" name="divisions">       6       6       6</v>
   <v name="usershift">      0.00000000      0.00000000      0.00000000</v>
   <v name="genvec1">      0.16666667      0.00000000      0.00000000</v>
   <v name="genvec2">      0.00000000      0.16666667      0.00000000</v>
   <v name="genvec3">      0.00000000      0.00000000      0.16666667</v>
   <v name="shift">      0.00000000      0.00000000      0.00000000</v>
  </generation>
  <varray name="kpointlist" >
   <v>       0.00000000      0.00000000      0.00000000</v>
   <v>       0.16666667      0.00000000      0.00000000</v>
   <v>       0.33333333      0.00000000      0.00000000</v>
   <v>       0.50000000      0.00000000      0.00000000</v>
   <v>       0.00000000      0.16666667      0.00000000</v>
   <v>       0.16666667      0.16666667      0.00000000</v>
   <v>       0.33333333      0.16666667      0.00000000</v>
   <v>       0.50000000      0.16666667      0.00000000</v>
   <v>       0.00000000      0.33333333      0.00000000</v>
   <v>       0.16666667      0.33333333      0.00000000</v>
   <v>       0.33333333      0.33333333      0.00000000</v>
   <v>       0.50000000      0.33333333      0.00000000</v>
   <v>       0.00000000      0.50000000      0.00000000</v>
   <v>       0.16666667      0.50000000      0.00000000</v>
   <v>       0.33333333      0.50000000      0.00000000</v>
   <v>       0.50000000      0.50000000      0.00000000</v>
   <v>       0.00000000      0.16666667      0.16666667</v>
   <v>       0.16666667      0.16666667      0.16666667</v>
   <v>       0.33333333      0.16666667      0.16666667</v>
   <v>       0.50000000      0.16666667      0.16666667</v>
   <v>       0.00000000      0.33333333      0.16666667</v>
   <v>       0.16666667      0.33333333      0.16666667</v>
   <v>       0.33333333      0.33333333      0.16666667</v>
   <v>       0.50000000      0.33333333      0.16666667</v>
   <v>       0.00000000      0.50000000      0.16666667</v>
   <v>       0.16666667      0.50000000      0.16666667</v>
   <v>       0.33333333      0.50000000      0.16666667</v>
   <v>       0.50000000      0.50000000      0.16666667</v>
   <v>       0.00000000      0.33333333      0.33333333</v>
   <v>       0.16666667      0.33333333      0.33333333</v>
   <v>       0.33333333      0.33333333      0.33333333</v>
   <v>       0.50000000      0.33333333      0.33333333</v>
   <v>       0.00000000      0.50000000      0.33333333</v>
   <v>       0.16666667      0.50000000      0.33333333</v>
   <v>       0.33333333      0.50000000      0.33333333</v>
   <v>       0.50000000      0.50000000      0.33333333</v>
   <v>       0.00000000      0.50000000      0.50000000</v>
   <v>       0.16666667      0.50000000      0.50000000</v>
   <v>       0.33333333      0.50000000      0.50000000</v>
   <v>       0.50000000      0.50000000      0.50000000</v>
  </varray>
  <varray name="weights" >
   <v>       0.00462963</v>
   <v>       0.00925926</v>
   <v>       0.00925926</v>
   <v>       0.00462963</v>
   <v>       0.01851852</v>
   <v>       0.03703704</v>
   <v>       0.03703704</v>
   <v>       0.01851852</v>
   <v>       0.01851852</v>
   <v>       0.03703704</v>
   <v>       0.03703704</v>
   <v>       0.01851852</v>
   <v>       0.00925926</v>
   <v>       0.01851852</v>
   <v>       0.01851852</v>
   <v>       0.00925926</v>
   <v>       0.01851852</v>
   <v>       0.03703704</v>
   <v>       0.03703704</v>
   <v>       0.01851852</v>
   <v>       0.03703704</v>
   <v>       0.07407407</v>
   <v>       0.07407407</v>
   <v>       0.03703704</v>
   <v>       0.01851852</v>
   <v>       0.03703704</v>
   <v>       0.03703704</v>
   <v>       0.01851852</v>
   <v>       0.01851852</v>
   <v>       0.03703704</v>
   <v>       0.03703704</v>
   <v>       0.01851852</v>
   <v>       0.01851852</v>
   <v>       0.03703704</v>
   <v>       0.03703704</v>
   <v>       0.01851852</v>
   <v>       0.00462963</v>
   <v>       0.00925926</v>
   <v>       0.00925926</v>
   <v>       0.00462963</v>
  </varray>
 </kpoints>
 <parameters>
  <separator name="general" >
   <i type="string" name="SYSTEM">unknown system</i>
   <i type="logical" name="LCOMPAT"> F  </i>
  </separator>
  <separator name="electronic" >
   <i type="string" name="PREC">accura</i>
   <i name="ENMAX">    500.00000000</i>
   <i name="ENAUG">    291.05200000</i>
   <i name="EDIFF">      0.00000001</i>
   <i type="int" name="IALGO">    38</i>
   <i type="int" name="IWAVPR">    10</i>
   <i type="int" name="NBANDS">    65</i>
   <i name="NELECT">     96.00000000</i>
   <separator name="electronic smearing" >
    <i type="int" name="ISMEAR">     0</i>
    <i name="SIGMA">      0.01000000</i>
   </separator>
   <separator name="electronic projectors" >
    <i type="logical" name="LREAL"> F  </i>
    <v name="ROPT">      0.00000000</v>
    <i type="int" name="LMAXPAW">  -100</i>
    <i type="int" name="LMAXMIX">     2</i>
   </separator>
   <separator name="electronic startup" >
    <i type="int" name="ISTART">     0</i>
    <i type="int" name="ICHARG">     2</i>
    <i type="int" name="INIWAV">     1</i>
   </separator>
   <separator name="electronic spin" >
    <i type="int" name="ISPIN">     1</i>
    <i type="logical" name="LNONCOLLINEAR"> F  </i>
    <v name="MAGMOM">      1.00000000      1.00000000      1.00000000      1.00000000      1.00000000      1.00000000      1.00000000      1.00000000      1.00000000      1.00000000      1.00000000      1.00000000      1.00000000      1.00000000      1.00000000      1.00000000      1.00000000      1.00000000      1.00000000      1.00000000
      1.00000000      1.00000000      1.00000000      1.00000000      1.00000000      1.00000000      1.00000000      1.00000000      1.00000000      1.00000000      1.00000000      1.00000000</v>
    <i name="NUPDOWN">     -1.00000000</i>
    <i type="logical" name="LSORBIT"> F  </i>
    <v name="SAXIS">      0.00000000      0.00000000      1.00000000</v>
    <i type="logical" name="LSPIRAL"> F  </i>
    <v name="QSPIRAL">      0.00000000      0.00000000      0.00000000</v>
    <i type="logical" name="LZEROZ"> F  </i>
   </separator>
   <separator name="electronic exchange-correlation" >
    <i type="string" name="GGA">--</i>
    <i type="int" name="VOSKOWN">     0</i>
    <i type="logical" name="LASPH"> F  </i>
    <i type="logical" name="LMETAGGA"> F  </i>
    <i type="string" name="GGA2">--</i>
   </separator>
   <separator name="electronic convergence" >
    <i type="int" name="NELM">    60</i>
    <i type="int" name="NELMDL">     0</i>
    <i type="int" name="NELMIN">     2</i>
    <i name="ENINI">    500.00000000</i>
    <separator name="electronic convergence detail" >
     <i type="logical" name="LDIAG"> T  </i>
     <i name="WEIMIN">      0.00000000</i>
     <i name="EBREAK">      0.00000000</i>
     <i name="DEPER">      0.30000000</i>
     <i type="int" name="NRMM">     4</i>
     <i name="TIME">      0.10000000</i>
    </separator>
   </separator>
   <separator name="electronic mixer" >
    <i name="AMIX">      0.40000000</i>
    <i name="BMIX">      1.00000000</i>
    <i name="AMIN">      0.10000000</i>
    <i name="AMIX_MAG">      1.60000000</i>
    <i name="BMIX_MAG">      1.00000000</i>
    <separator name="electronic mixer details" >
     <i type="int" name="IMIX">     4</i>
     <i type="int" name="MAXMIX">   -45</i>
     <i name="WC">    100.00000000</i>
     <i type="int" name="INIMIX">     1</i>
     <i type="int" name="MIXPRE">     1</i>
     <i type="int" name="MREMOVE">     5</i>
    </separator>
   </separator>
   <separator name="electronic dipolcorrection" >
    <i type="int" name="IDIPOL">     0</i>
    <i type="logical" name="LDIPOL"> F  </i>
    <v name="DIPOL">   -100.00000000</v>
    <i name="EFIELD">      0.00000000</i>
   </separator>
  </separator>
  <separator name="grids" >
   <i type="int" name="NGX">    64</i>
   <i type="int" name="NGY">    64</i>
   <i type="int" name="NGZ">    64</i>
   <i type="int" name="NGXF">   128</i>
   <i type="int" name="NGYF">   128</i>
   <i type="int" name="NGZF">   128</i>
   <i type="logical" name="ADDGRID"> F  </i>
  </separator>
  <separator name="ionic" >
   <i type="int" name="NSW">     0</i>
   <i type="int" name="IBRION">    -1</i>
   <i type="int" name="ISIF">     2</i>
   <i name="PSTRESS">      0.00000000</i>
   <i name="EDIFFG">      0.00000010</i>
   <i type="int" name="NFREE">     0</i>
   <i name="POTIM">      0.50000000</i>
   <i name="SMASS">     -3.00000000</i>
  </separator>
  <separator name="ionic md" >
   <i name="TEBEG">      0.00010000</i>
   <i name="TEEND">      0.00010000</i>
   <i type="int" name="NBLOCK">     1</i>
   <i type="int" name="KBLOCK">     1</i>
   <i type="int" name="NPACO">   256</i>
   <i name="APACO">     16.00000000</i>
  </separator>
  <separator name="symmetry" >
   <i type="int" name="ISYM">     2</i>
   <i name="SYMPREC">      0.00001000</i>
  </separator>
  <separator name="dos" >
   <i type="logical" name="LORBIT"> F  </i>
   <v name="RWIGS">     -1.00000000</v>
   <i type="int" name="NEDOS">   301</i>
   <i name="EMIN">     10.00000000</i>
   <i name="EMAX">    -10.00000000</i>
  </separator>
  <separator name="writing" >
   <i type="int" name="NWRITE">     2</i>
   <i type="logical" name="LWAVE"> F  </i>
   <i type="logical" name="LCHARG"> F  </i>
   <i type="logical" name="LPARD"> F  </i>
   <i type="logical" name="LVTOT"> F  </i>
   <i type="logical" name="LELF"> F  </i>
   <i type="logical" name="LOPTICS"> F  </i>
   <i name="STM">      0.00000000</i>
  </separator>
  <separator name="performance" >
   <i type="int" name="NPAR">     8</i>
   <i type="int" name="NSIM">     4</i>
   <i type="int" name="NBLK">   256</i>
   <i type="logical" name="LPLANE"> T  </i>
   <i type="logical" name="LCRITICAL_MEM"> F  </i>
   <i type="logical" name="LSCALAPACK"> F  </i>
   <i type="logical" name="LSCALU"> F  </i>
   <i type="logical" name="LASYNC"> F  </i>
  </separator>
  <separator name="miscellaneous" >
   <i type="int" name="IDIOT">     3</i>
   <i type="logical" name="LMUSIC"> F  </i>
   <v name="POMASS">     26.98200000</v>
   <i type="logical" name="LCORR"> T  </i>
  </separator>
  <i type="logical" name="LREAL_COMPAT"> F  </i>
  <i type="logical" name="GGA_COMPAT"> T  </i>
  <i type="logical" name="LBERRY"> F  </i>
  <i type="int" name="ICORELEVEL">     0</i>
  <i type="logical" name="LDAU"> F  </i>
  <i type="int" name="I_CONSTRAINED_M">     0</i>
 </parameters>
 <atominfo>
  <atoms>      32</atoms>
  <types>       1</types>
  <array name="atoms" >
   <dimension dim="1">ion</dimension>
   <field type="string">element</field>
   <field type="int">atomtype</field>
   <set>
    <rc><c>Al</c><c>   1</c></rc>
    <rc><c>Al</c><c>   1</c></rc>
    <rc><c>Al</c><c>   1</c></rc>
    <rc><c>Al</c><c>   1</c></rc>
    <rc><c>Al</c><c>   1</c></rc>
    <rc><c>Al</c><c>   1</c></rc>
    <rc><c>Al</c><c>   1</c></rc>
    <rc><c>Al</c><c>   1</c></rc>
    <rc><c>Al</c><c>   1</c></rc>
    <rc><c>Al</c><c>   1</c></rc>
    <rc><c>Al</c><c>   1</c></rc>
    <rc><c>Al</c><c>   1</c></rc>
    <rc><c>Al</c><c>   1</c></rc>
    <rc><c>Al</c><c>   1</c></rc>
    <rc><c>Al</c><c>   1</c></rc>
    <rc><c>Al</c><c>   1</c></rc>
    <rc><c>Al</c><c>   1</c></rc>
    <rc><c>Al</c><c>   1</c></rc>
    <rc><c>Al</c><c>   1</c></rc>
    <rc><c>Al</c><c>   1</c></rc>
    <rc><c>Al</c><c>   1</c></rc>
    <rc><c>Al</c><c>   1</c></rc>
    <rc><c>Al</c><c>   1</c></rc>
    <rc><c>Al</c><c>   1</c></rc>
    <rc><c>Al</c><c>   1</c></rc>
    <rc><c>Al</c><c>   1</c></rc>
    <rc><c>Al</c><c>   1</c></rc>
    <rc><c>Al</c><c>   1</c></rc>
    <rc><c>Al</c><c>   1</c></rc>
    <rc><c>Al</c><c>   1</c></rc>
    <rc><c>Al</c><c>   1</c></rc>
    <rc><c>Al</c><c>   1</c></rc>
   </set>
  </array>
  <array name="atomtypes" >
   <dimension dim="1">type</dimension>
   <field type="int">atomspertype</field>
   <field type="string">element</field>
   <field>mass</field>
   <field>valence</field>
   <field type="string">pseudopotential</field>
   <set>
    <rc><c>  32</c><c>Al</c><c>     26.98200000</c><c>      3.00000000</c><c> PAW_PBE Al 04Jan2001                   </c></rc>
   </set>
  </array>
 </atominfo>
 <structure name="initialpos" >
  <crystal>
   <varray name="basis" >
    <v>       8.47811979      0.00000000      0.00000000</v>
    <v>       0.00000000      8.47811979      0.00000000</v>
    <v>       0.00000000      0.00000000      8.47811979</v>
   </varray>
   <i name="volume">    609.39466197</i>
   <varray name="rec_basis" >
    <v>       0.11795068      0.00000000      0.00000000</v>
    <v>       0.00000000      0.11795068      0.00000000</v>
    <v>       0.00000000      0.00000000      0.11795068</v>
   </varray>
  </crystal>
  <varray name="positions" >
   <v>       0.25117951      0.25000000      0.00000000</v>
   <v>       0.75000000      0.25000000      0.00000000</v>
   <v>       0.25000000      0.75000000      0.00000000</v>
   <v>       0.75000000      0.75000000      0.00000000</v>
   <v>       0.25000000      0.25000000      0.50000000</v>
   <v>       0.75000000      0.25000000      0.50000000</v>
   <v>       0.25000000      0.75000000      0.50000000</v>
   <v>       0.75000000      0.75000000      0.50000000</v>
   <v>       0.25000000      0.00000000      0.25000000</v>
   <v>       0.75000000      0.00000000      0.25000000</v>
   <v>       0.25000000      0.50000000      0.25000000</v>
   <v>       0.75000000      0.50000000      0.25000000</v>
   <v>       0.25000000      0.00000000      0.75000000</v>
   <v>       0.75000000      0.00000000      0.75000000</v>
   <v>       0.25000000      0.50000000      0.75000000</v>
   <v>       0.75000000      0.50000000      0.75000000</v>
   <v>       0.00000000      0.25000000      0.25000000</v>
   <v>       0.50000000      0.25000000      0.25000000</v>
   <v>       0.00000000      0.75000000      0.25000000</v>
   <v>       0.50000000      0.75000000      0.25000000</v>
   <v>       0.00000000      0.25000000      0.75000000</v>
   <v>       0.50000000      0.25000000      0.75000000</v>
   <v>       0.00000000      0.75000000      0.75000000</v>
   <v>       0.50000000      0.75000000      0.75000000</v>
   <v>       0.00000000      0.00000000      0.00000000</v>
   <v>       0.50000000      0.00000000      0.00000000</v>
   <v>       0.00000000      0.50000000      0.00000000</v>
   <v>       0.50000000      0.50000000      0.00000000</v>
   <v>       0.00000000      0.00000000      0.50000000</v>
   <v>       0.50000000      0.00000000      0.50000000</v>
   <v>       0.00000000      0.50000000      0.50000000</v>
   <v>       0.50000000      0.50000000      0.50000000</v>
  </varray>
 </structure>
 <calculation>
  <scstep>
   <time name="dav">   24.30   24.37</time>
   <time name="total">   24.47   24.54</time>
   <energy>
    <i name="alphaZ">     -5.64400003</i>
    <i name="ewald">  -2242.72008056</i>
    <i name="hartreedc">     -5.70587823</i>
    <i name="XCdc">   -847.68808879</i>
    <i name="pawpsdc">   1137.73615723</i>
    <i name="pawaedc">   -115.16745734</i>
    <i name="eentropy">     -0.00076628</i>
    <i name="bandstr">    470.67957443</i>
    <i name="atom">   1713.22913220</i>
    <i name="e_fr_energy">    104.71859263</i>
    <i name="e_wo_entrp">    104.71935891</i>
    <i name="e_0_energy">    104.71897577</i>
   </energy>
  </scstep>
  <scstep>
   <time name="dav">   27.24   27.29</time>
   <time name="total">   27.25   27.29</time>
   <energy>
    <i name="e_fr_energy">   -105.60588136</i>
    <i name="e_wo_entrp">   -105.60507324</i>
    <i name="e_0_energy">   -105.60547730</i>
   </energy>
  </scstep>
  <scstep>
   <time name="dav">   28.38   28.43</time>
   <time name="total">   28.39   28.43</time>
   <energy>
    <i name="e_fr_energy">   -117.86222813</i>
    <i name="e_wo_entrp">   -117.86159361</i>
    <i name="e_0_energy">   -117.86191087</i>
   </energy>
  </scstep>
  <scstep>
   <time name="dav">   27.11   27.16</time>
   <time name="total">   27.12   27.17</time>
   <energy>
    <i name="e_fr_energy">   -118.11034586</i>
    <i name="e_wo_entrp">   -118.10960022</i>
    <i name="e_0_energy">   -118.10997304</i>
   </energy>
  </scstep>
  <scstep>
   <time name="dav">   27.09   27.13</time>
   <time name="total">   28.76   28.81</time>
   <energy>
    <i name="e_fr_energy">   -118.11349237</i>
    <i name="e_wo_entrp">   -118.11274075</i>
    <i name="e_0_energy">   -118.11311656</i>
   </energy>
  </scstep>
  <scstep>
   <time name="dav">   26.57   26.61</time>
   <time name="total">   28.40   28.44</time>
   <energy>
    <i name="e_fr_energy">   -117.72692036</i>
    <i name="e_wo_entrp">   -117.72621134</i>
    <i name="e_0_energy">   -117.72656585</i>
   </energy>
  </scstep>
  <scstep>
   <time name="dav">   25.84   25.88</time>
   <time name="total">   27.71   27.75</time>
   <energy>
    <i name="e_fr_energy">   -117.45011578</i>
    <i name="e_wo_entrp">   -117.44953151</i>
    <i name="e_0_energy">   -117.44982365</i>
   </energy>
  </scstep>
  <scstep>
   <time name="dav">   27.44   27.48</time>
   <time name="total">   29.30   29.35</time>
   <energy>
    <i name="e_fr_energy">   -117.44995750</i>
    <i name="e_wo_entrp">   -117.44937569</i>
    <i name="e_0_energy">   -117.44966660</i>
   </energy>
  </scstep>
  <scstep>
   <time name="dav">   27.17   27.22</time>
   <time name="total">   29.00   29.05</time>
   <energy>
    <i name="e_fr_energy">   -117.44997203</i>
    <i name="e_wo_entrp">   -117.44939231</i>
    <i name="e_0_energy">   -117.44968217</i>
   </energy>
  </scstep>
  <scstep>
   <time name="dav">   27.52   27.57</time>
   <time name="total">   29.42   29.48</time>
   <energy>
    <i name="e_fr_energy">   -117.44996979</i>
    <i name="e_wo_entrp">   -117.44939019</i>
    <i name="e_0_energy">   -117.44967999</i>
   </energy>
  </scstep>
  <scstep>
   <time name="dav">   27.07   27.13</time>
   <time name="total">   28.94   28.99</time>
   <energy>
    <i name="e_fr_energy">   -117.44996612</i>
    <i name="e_wo_entrp">   -117.44938657</i>
    <i name="e_0_energy">   -117.44967635</i>
   </energy>
  </scstep>
  <scstep>
   <time name="dav">   19.60   19.64</time>
   <time name="total">   21.44   21.48</time>
   <energy>
    <i name="e_fr_energy">   -117.44996520</i>
    <i name="e_wo_entrp">   -117.44938568</i>
    <i name="e_0_energy">   -117.44967544</i>
   </energy>
  </scstep>
  <scstep>
   <time name="dav">   18.42   18.45</time>
   <time name="total">   20.31   20.34</time>
   <energy>
    <i name="e_fr_energy">   -117.44996514</i>
    <i name="e_wo_entrp">   -117.44938562</i>
    <i name="e_0_energy">   -117.44967538</i>
   </energy>
  </scstep>
  <scstep>
   <time name="dav">   18.25   18.28</time>
   <time name="total">   20.09   20.13</time>
   <energy>
    <i name="e_fr_energy">   -117.44996515</i>
    <i name="e_wo_entrp">   -117.44938563</i>
    <i name="e_0_energy">   -117.44967539</i>
   </energy>
  </scstep>
  <scstep>
   <time name="dav">   18.23   18.26</time>
   <time name="total">   20.09   20.12</time>
   <energy>
    <i name="e_fr_energy">   -117.44996517</i>
    <i name="e_wo_entrp">   -117.44938565</i>
    <i name="e_0_energy">   -117.44967541</i>
   </energy>
  </scstep>
  <scstep>
   <time name="dav">   18.23   18.26</time>
   <time name="total">   18.43   18.46</time>
   <energy>
    <i name="alphaZ">     -5.64400003</i>
    <i name="ewald">  -2242.72008056</i>
    <i name="hartreedc">     -3.30437218</i>
    <i name="XCdc">   -845.22033563</i>
    <i name="pawpsdc">   1130.49956180</i>
    <i name="pawaedc">   -107.75518203</i>
    <i name="eentropy">     -0.00057952</i>
    <i name="bandstr">    243.46589078</i>
    <i name="atom">   1713.22913220</i>
    <i name="e_fr_energy">   -117.44996518</i>
    <i name="e_wo_entrp">   -117.44938565</i>
    <i name="e_0_energy">   -117.44967542</i>
   </energy>
  </scstep>
  <structure>
   <crystal>
    <varray name="basis" >
     <v>       8.47811979      0.00000000      0.00000000</v>
     <v>       0.00000000      8.47811979      0.00000000</v>
     <v>       0.00000000      0.00000000      8.47811979</v>
    </varray>
    <i name="volume">    609.39466197</i>
    <varray name="rec_basis" >
     <v>       0.11795068      0.00000000      0.00000000</v>
     <v>       0.00000000      0.11795068      0.00000000</v>
     <v>       0.00000000      0.00000000      0.11795068</v>
    </varray>
   </crystal>
   <varray name="positions" >
    <v>       0.25117951      0.25000000      0.00000000</v>
    <v>       0.75000000      0.25000000      0.00000000</v>
    <v>       0.25000000      0.75000000      0.00000000</v>
    <v>       0.75000000      0.75000000      0.00000000</v>
    <v>       0.25000000      0.25000000      0.50000000</v>
    <v>       0.75000000      0.25000000      0.50000000</v>
    <v>       0.25000000      0.75000000      0.50000000</v>
    <v>       0.75000000      0.75000000      0.50000000</v>
    <v>       0.25000000      0.00000000      0.25000000</v>
    <v>       0.75000000      0.00000000      0.25000000</v>
    <v>       0.25000000      0.50000000      0.25000000</v>
    <v>       0.75000000      0.50000000      0.25000000</v>
    <v>       0.25000000      0.00000000      0.75000000</v>
    <v>       0.75000000      0.00000000      0.75000000</v>
    <v>       0.25000000      0.50000000      0.75000000</v>
    <v>       0.75000000      0.50000000      0.75000000</v>
    <v>       0.00000000      0.25000000      0.25000000</v>
    <v>       0.50000000      0.25000000      0.25000000</v>
    <v>       0.00000000      0.75000000      0.25000000</v>
    <v>       0.50000000      0.75000000      0.25000000</v>
    <v>       0.00000000      0.25000000      0.75000000</v>
    <v>       0.50000000      0.25000000      0.75000000</v>
    <v>       0.00000000      0.75000000      0.75000000</v>
    <v>       0.50000000      0.75000000      0.75000000</v>
    <v>       0.00000000      0.00000000      0.00000000</v>
    <v>       0.50000000      0.00000000      0.00000000</v>
    <v>       0.00000000      0.50000000      0.00000000</v>
    <v>       0.50000000      0.50000000      0.00000000</v>
    <v>       0.00000000      0.00000000      0.50000000</v>
    <v>       0.50000000      0.00000000      0.50000000</v>
    <v>       0.00000000      0.50000000      0.50000000</v>
    <v>       0.50000000      0.50000000      0.50000000</v>
   </varray>
  </structure>
  <varray name="forces" >
   <v>      -0.02493873      0.00000000      0.00000000</v>
   <v>       0.00126203     -0.00000000     -0.00000000</v>
   <v>      -0.00040138     -0.00000000     -0.00000000</v>
   <v>       0.00033757      0.00000000     -0.00000000</v>
   <v>      -0.00040138     -0.00000000     -0.00000000</v>
   <v>       0.00033757      0.00000000      0.00000000</v>
   <v>       0.00008349      0.00000000      0.00000000</v>
   <v>      -0.00007431     -0.00000000      0.00000000</v>
   <v>      -0.00110780      0.00001077     -0.00001077</v>
   <v>      -0.00055899      0.00000243     -0.00000243</v>
   <v>      -0.00110780     -0.00001077     -0.00001077</v>
   <v>      -0.00055899     -0.00000243     -0.00000243</v>
   <v>      -0.00110780      0.00001077      0.00001077</v>
   <v>      -0.00055899      0.00000243      0.00000243</v>
   <v>      -0.00110780     -0.00001077      0.00001077</v>
   <v>      -0.00055899     -0.00000243      0.00000243</v>
   <v>       0.00396731     -0.00000000     -0.00402309</v>
   <v>       0.00406000     -0.00000000      0.00415128</v>
   <v>      -0.00020469     -0.00000000      0.00057397</v>
   <v>      -0.00020706      0.00000000     -0.00057220</v>
   <v>       0.00396731      0.00000000      0.00402309</v>
   <v>       0.00406000      0.00000000     -0.00415128</v>
   <v>      -0.00020469     -0.00000000     -0.00057397</v>
   <v>      -0.00020706     -0.00000000      0.00057220</v>
   <v>       0.00396731      0.00402309     -0.00000000</v>
   <v>       0.00406000     -0.00415128     -0.00000000</v>
   <v>       0.00396731     -0.00402309      0.00000000</v>
   <v>       0.00406000      0.00415128     -0.00000000</v>
   <v>      -0.00020469     -0.00057397     -0.00000000</v>
   <v>      -0.00020706      0.00057220      0.00000000</v>
   <v>      -0.00020469      0.00057397      0.00000000</v>
   <v>      -0.00020706     -0.00057220     -0.00000000</v>
  </varray>
  <varray name="stress" >
   <v>     -77.94665517     -0.00000000      0.00000000</v>
   <v>       0.00000000    -77.94789519      0.00000000</v>
   <v>       0.00000000      0.00000000    -77.94789519</v>
  </varray>
  <energy>
   <i name="e_fr_energy">   -117.44996518</i>
   <i name="e_wo_entrp">   -117.44967542</i>
   <i name="e_0_energy">     -0.00057952</i>
  </energy>
  <eigenvalues>
   <array>
    <dimension dim="1">band</dimension>
    <dimension dim="2">kpoint</dimension>
    <dimension dim="3">spin</dimension>
    <field>eigene</field>
    <field>occ</field>
    <set>
     <set comment="spin 1">
      <set comment="kpoint 1">
       <r>  -3.5980  1.0000</r>
       <r>  -1.5551  1.0000</r>
       <r>  -1.5516  1.0000</r>
       <r>  -1.5516  1.0000</r>
       <r>  -1.5516  1.0000</r>
       <r>  -1.5516  1.0000</r>
       <r>  -1.5482  1.0000</r>
       <r>   0.4628  1.0000</r>
       <r>   0.4671  1.0000</r>
       <r>   0.4671  1.0000</r>
       <r>   0.4686  1.0000</r>
       <r>   0.4687  1.0000</r>
       <r>   0.4687  1.0000</r>
       <r>   0.4687  1.0000</r>
       <r>   0.4687  1.0000</r>
       <r>   0.4689  1.0000</r>
       <r>   0.4703  1.0000</r>
       <r>   0.4703  1.0000</r>
       <r>   0.4747  1.0000</r>
       <r>   2.3839  1.0000</r>
       <r>   2.3839  1.0000</r>
       <r>   2.3839  1.0000</r>
       <r>   2.3839  1.0000</r>
       <r>   2.5476  1.0000</r>
       <r>   2.5476  1.0000</r>
       <r>   2.5476  1.0000</r>
       <r>   2.5477  1.0000</r>
       <r>   4.0047  1.0000</r>
       <r>   4.0047  1.0000</r>
       <r>   4.0048  1.0000</r>
       <r>   4.9692  1.0000</r>
       <r>   4.9692  1.0000</r>
       <r>   4.9692  1.0000</r>
       <r>   5.9147  1.0000</r>
       <r>   5.9147  1.0000</r>
       <r>   5.9187  1.0000</r>
       <r>   5.9187  1.0000</r>
       <r>   5.9188  1.0000</r>
       <r>   5.9188  1.0000</r>
       <r>   5.9188  1.0000</r>
       <r>   5.9188  1.0000</r>
       <r>   5.9189  1.0000</r>
       <r>   5.9189  1.0000</r>
       <r>   5.9228  1.0000</r>
       <r>   5.9228  1.0000</r>
       <r>   6.9405  0.0000</r>
       <r>   6.9413  0.0000</r>
       <r>   6.9413  0.0000</r>
       <r>   6.9413  0.0000</r>
       <r>   6.9413  0.0000</r>
       <r>   6.9421  0.0000</r>
       <r>   6.9850  0.0000</r>
       <r>   6.9888  0.0000</r>
       <r>   6.9888  0.0000</r>
       <r>   6.9888  0.0000</r>
       <r>   6.9889  0.0000</r>
       <r>   6.9925  0.0000</r>
       <r>   7.8298  0.0000</r>
       <r>   7.8298  0.0000</r>
       <r>   7.8316  0.0000</r>
       <r>   7.8335  0.0000</r>
       <r>   7.8336  0.0000</r>
       <r>   7.8336  0.0000</r>
       <r>   7.8336  0.0000</r>
       <r>   7.8337  0.0000</r>
       <r>   7.8338  0.0000</r>
       <r>   7.8357  0.0000</r>
       <r>   7.8375  0.0000</r>
       <r>   7.8375  0.0000</r>
       <r>   8.9044  0.0000</r>
       <r>   8.9064  0.0000</r>
       <r>   8.9073  0.0000</r>
      </set>
      <set comment="kpoint 2">
       <r>  -3.5408  1.0000</r>
       <r>  -2.1741  1.0000</r>
       <r>  -1.4952  1.0000</r>
       <r>  -1.4952  1.0000</r>
       <r>  -1.4952  1.0000</r>
       <r>  -1.4952  1.0000</r>
       <r>  -0.8192  1.0000</r>
       <r>  -0.1460  1.0000</r>
       <r>  -0.1460  1.0000</r>
       <r>  -0.1460  1.0000</r>
       <r>  -0.1460  1.0000</r>
       <r>   0.5244  1.0000</r>
       <r>   0.5244  1.0000</r>
       <r>   0.5244  1.0000</r>
       <r>   0.5244  1.0000</r>
       <r>   1.1921  1.0000</r>
       <r>   1.1921  1.0000</r>
       <r>   1.1921  1.0000</r>
       <r>   1.1921  1.0000</r>
       <r>   1.8533  1.0000</r>
       <r>   1.8533  1.0000</r>
       <r>   1.8533  1.0000</r>
       <r>   1.8533  1.0000</r>
       <r>   3.1345  1.0000</r>
       <r>   3.1856  1.0000</r>
       <r>   3.1856  1.0000</r>
       <r>   3.1856  1.0000</r>
       <r>   3.1856  1.0000</r>
       <r>   4.0578  1.0000</r>
       <r>   4.0578  1.0000</r>
       <r>   5.0254  1.0000</r>
       <r>   5.0255  1.0000</r>
       <r>   5.0883  1.0000</r>
       <r>   5.0883  1.0000</r>
       <r>   5.0883  1.0000</r>
       <r>   5.0884  1.0000</r>
       <r>   5.3335  1.0000</r>
       <r>   5.3335  1.0000</r>
       <r>   5.9401  1.0000</r>
       <r>   5.9720  1.0000</r>
       <r>   5.9720  1.0000</r>
       <r>   5.9720  1.0000</r>
       <r>   5.9720  1.0000</r>
       <r>   6.3619  1.0000</r>
       <r>   6.3619  1.0000</r>
       <r>   6.6108  0.1148</r>
       <r>   6.6108  0.1148</r>
       <r>   7.0193  0.0000</r>
       <r>   7.0195  0.0000</r>
       <r>   7.0195  0.0000</r>
       <r>   7.0198  0.0000</r>
       <r>   7.0267  0.0000</r>
       <r>   7.0269  0.0000</r>
       <r>   7.0269  0.0000</r>
       <r>   7.0272  0.0000</r>
       <r>   7.2485  0.0000</r>
       <r>   7.2485  0.0000</r>
       <r>   7.2485  0.0000</r>
       <r>   7.2485  0.0000</r>
       <r>   7.6684  0.0000</r>
       <r>   7.6684  0.0000</r>
       <r>   7.8934  0.0000</r>
       <r>   7.8934  0.0000</r>
       <r>   7.8934  0.0000</r>
       <r>   7.8934  0.0000</r>
       <r>   8.3207  0.0000</r>
       <r>   8.3207  0.0000</r>
       <r>   8.3207  0.0000</r>
       <r>   8.3207  0.0000</r>
       <r>   8.5251  0.0000</r>
       <r>   8.5251  0.0000</r>
       <r>   8.5252  0.0000</r>
      </set>
      <set comment="kpoint 3">
       <r>  -3.3694  1.0000</r>
       <r>  -2.6853  1.0000</r>
       <r>  -1.3260  1.0000</r>
       <r>  -1.3259  1.0000</r>
       <r>  -1.3259  1.0000</r>
       <r>  -1.3259  1.0000</r>
       <r>  -0.6507  1.0000</r>
       <r>  -0.6507  1.0000</r>
       <r>  -0.6507  1.0000</r>
       <r>  -0.6507  1.0000</r>
       <r>   0.0213  1.0000</r>
       <r>   0.6914  1.0000</r>
       <r>   0.6914  1.0000</r>
       <r>   0.6914  1.0000</r>
       <r>   0.6914  1.0000</r>
       <r>   1.3572  1.0000</r>
       <r>   1.3572  1.0000</r>
       <r>   1.3572  1.0000</r>
       <r>   1.3572  1.0000</r>
       <r>   2.0119  1.0000</r>
       <r>   2.0221  1.0000</r>
       <r>   2.0221  1.0000</r>
       <r>   2.0221  1.0000</r>
       <r>   2.0223  1.0000</r>
       <r>   3.9862  1.0000</r>
       <r>   3.9862  1.0000</r>
       <r>   3.9863  1.0000</r>
       <r>   3.9863  1.0000</r>
       <r>   4.0032  1.0000</r>
       <r>   4.0033  1.0000</r>
       <r>   4.0033  1.0000</r>
       <r>   4.0033  1.0000</r>
       <r>   4.2172  1.0000</r>
       <r>   4.2172  1.0000</r>
       <r>   4.8549  1.0000</r>
       <r>   4.8549  1.0000</r>
       <r>   5.1940  1.0000</r>
       <r>   5.1940  1.0000</r>
       <r>   5.8641  1.0000</r>
       <r>   5.8641  1.0000</r>
       <r>   5.9416  1.0000</r>
       <r>   5.9416  1.0000</r>
       <r>   5.9417  1.0000</r>
       <r>   5.9417  1.0000</r>
       <r>   6.1315  1.0000</r>
       <r>   6.1315  1.0000</r>
       <r>   6.1315  1.0000</r>
       <r>   6.1315  1.0000</r>
       <r>   6.7697  0.0000</r>
       <r>   6.7697  0.0000</r>
       <r>   6.7697  0.0000</r>
       <r>   6.7697  0.0000</r>
       <r>   7.1841  0.0000</r>
       <r>   7.1841  0.0000</r>
       <r>   7.1841  0.0000</r>
       <r>   7.1841  0.0000</r>
       <r>   7.3641  0.0000</r>
       <r>   7.4098  0.0000</r>
       <r>   7.4098  0.0000</r>
       <r>   7.8361  0.0000</r>
       <r>   7.8361  0.0000</r>
       <r>   7.8361  0.0000</r>
       <r>   7.8362  0.0000</r>
       <r>   8.4637  0.0000</r>
       <r>   8.4637  0.0000</r>
       <r>   9.2870  0.0000</r>
       <r>   9.2872  0.0000</r>
       <r>   9.2874  0.0000</r>
       <r>   9.2879  0.0000</r>
       <r>   9.3225  0.0000</r>
       <r>   9.3228  0.0000</r>
       <r>   9.3249  0.0000</r>
      </set>
      <set comment="kpoint 4">
       <r>  -3.0853  1.0000</r>
       <r>  -3.0827  1.0000</r>
       <r>  -1.0480  1.0000</r>
       <r>  -1.0450  1.0000</r>
       <r>  -1.0450  1.0000</r>
       <r>  -1.0443  1.0000</r>
       <r>  -1.0442  1.0000</r>
       <r>  -1.0435  1.0000</r>
       <r>  -1.0435  1.0000</r>
       <r>  -1.0406  1.0000</r>
       <r>   0.9635  1.0000</r>
       <r>   0.9670  1.0000</r>
       <r>   0.9681  1.0000</r>
       <r>   0.9681  1.0000</r>
       <r>   0.9686  1.0000</r>
       <r>   0.9689  1.0000</r>
       <r>   0.9696  1.0000</r>
       <r>   0.9704  1.0000</r>
       <r>   0.9704  1.0000</r>
       <r>   0.9733  1.0000</r>
       <r>   2.9543  1.0000</r>
       <r>   2.9551  1.0000</r>
       <r>   2.9551  1.0000</r>
       <r>   2.9556  1.0000</r>
       <r>   2.9559  1.0000</r>
       <r>   2.9565  1.0000</r>
       <r>   2.9565  1.0000</r>
       <r>   2.9573  1.0000</r>
       <r>   4.4815  1.0000</r>
       <r>   4.4815  1.0000</r>
       <r>   4.4842  1.0000</r>
       <r>   4.4842  1.0000</r>
       <r>   4.9236  1.0000</r>
       <r>   4.9236  1.0000</r>
       <r>   4.9243  1.0000</r>
       <r>   4.9244  1.0000</r>
       <r>   4.9251  1.0000</r>
       <r>   4.9251  1.0000</r>
       <r>   4.9259  1.0000</r>
       <r>   4.9259  1.0000</r>
       <r>   5.4725  1.0000</r>
       <r>   5.4732  1.0000</r>
       <r>   5.4750  1.0000</r>
       <r>   5.4757  1.0000</r>
       <r>   6.3952  1.0000</r>
       <r>   6.3952  1.0000</r>
       <r>   6.3962  1.0000</r>
       <r>   6.3973  1.0000</r>
       <r>   6.3975  1.0000</r>
       <r>   6.3986  1.0000</r>
       <r>   6.3996  1.0000</r>
       <r>   6.3996  1.0000</r>
       <r>   7.4543  0.0000</r>
       <r>   7.4557  0.0000</r>
       <r>   7.4557  0.0000</r>
       <r>   7.4557  0.0000</r>
       <r>   7.4574  0.0000</r>
       <r>   7.4575  0.0000</r>
       <r>   7.4575  0.0000</r>
       <r>   7.4589  0.0000</r>
       <r>   8.3143  0.0000</r>
       <r>   8.3143  0.0000</r>
       <r>   8.3166  0.0000</r>
       <r>   8.3166  0.0000</r>
       <r>   8.9093  0.0000</r>
       <r>   8.9109  0.0000</r>
       <r>   9.3363  0.0000</r>
       <r>   9.3370  0.0000</r>
       <r>   9.3381  0.0000</r>
       <r>   9.3387  0.0000</r>
       <r>  10.2248  0.0000</r>
       <r>  10.2269  0.0000</r>
      </set>
      <set comment="kpoint 5">
       <r>  -3.5408  1.0000</r>
       <r>  -2.1741  1.0000</r>
       <r>  -1.4979  1.0000</r>
       <r>  -1.4952  1.0000</r>
       <r>  -1.4952  1.0000</r>
       <r>  -1.4925  1.0000</r>
       <r>  -0.8192  1.0000</r>
       <r>  -0.1487  1.0000</r>
       <r>  -0.1460  1.0000</r>
       <r>  -0.1460  1.0000</r>
       <r>  -0.1433  1.0000</r>
       <r>   0.5223  1.0000</r>
       <r>   0.5234  1.0000</r>
       <r>   0.5254  1.0000</r>
       <r>   0.5265  1.0000</r>
       <r>   1.1894  1.0000</r>
       <r>   1.1921  1.0000</r>
       <r>   1.1921  1.0000</r>
       <r>   1.1948  1.0000</r>
       <r>   1.8512  1.0000</r>
       <r>   1.8523  1.0000</r>
       <r>   1.8543  1.0000</r>
       <r>   1.8554  1.0000</r>
       <r>   3.1345  1.0000</r>
       <r>   3.1835  1.0000</r>
       <r>   3.1846  1.0000</r>
       <r>   3.1866  1.0000</r>
       <r>   3.1877  1.0000</r>
       <r>   4.0578  1.0000</r>
       <r>   4.0579  1.0000</r>
       <r>   5.0255  1.0000</r>
       <r>   5.0255  1.0000</r>
       <r>   5.0855  1.0000</r>
       <r>   5.0883  1.0000</r>
       <r>   5.0883  1.0000</r>
       <r>   5.0911  1.0000</r>
       <r>   5.3335  1.0000</r>
       <r>   5.3336  1.0000</r>
       <r>   5.9401  1.0000</r>
       <r>   5.9695  1.0000</r>
       <r>   5.9720  1.0000</r>
       <r>   5.9720  1.0000</r>
       <r>   5.9745  1.0000</r>
       <r>   6.3619  1.0000</r>
       <r>   6.3619  1.0000</r>
       <r>   6.6108  0.1146</r>
       <r>   6.6109  0.1145</r>
       <r>   7.0179  0.0000</r>
       <r>   7.0197  0.0000</r>
       <r>   7.0198  0.0000</r>
       <r>   7.0216  0.0000</r>
       <r>   7.0245  0.0000</r>
       <r>   7.0257  0.0000</r>
       <r>   7.0277  0.0000</r>
       <r>   7.0291  0.0000</r>
       <r>   7.2460  0.0000</r>
       <r>   7.2485  0.0000</r>
       <r>   7.2485  0.0000</r>
       <r>   7.2510  0.0000</r>
       <r>   7.6684  0.0000</r>
       <r>   7.6684  0.0000</r>
       <r>   7.8908  0.0000</r>
       <r>   7.8934  0.0000</r>
       <r>   7.8934  0.0000</r>
       <r>   7.8960  0.0000</r>
       <r>   8.3188  0.0000</r>
       <r>   8.3207  0.0000</r>
       <r>   8.3207  0.0000</r>
       <r>   8.3225  0.0000</r>
       <r>   8.5227  0.0000</r>
       <r>   8.5252  0.0000</r>
       <r>   8.5257  0.0000</r>
      </set>
      <set comment="kpoint 6">
       <r>  -3.4836  1.0000</r>
       <r>  -2.1186  1.0000</r>
       <r>  -2.1164  1.0000</r>
       <r>  -1.4388  1.0000</r>
       <r>  -1.4388  1.0000</r>
       <r>  -0.7648  1.0000</r>
       <r>  -0.7630  1.0000</r>
       <r>  -0.7613  1.0000</r>
       <r>  -0.0916  1.0000</r>
       <r>  -0.0907  1.0000</r>
       <r>  -0.0894  1.0000</r>
       <r>  -0.0886  1.0000</r>
       <r>   0.5795  1.0000</r>
       <r>   0.5807  1.0000</r>
       <r>   1.2446  1.0000</r>
       <r>   1.2456  1.0000</r>
       <r>   1.2470  1.0000</r>
       <r>   1.2472  1.0000</r>
       <r>   1.2484  1.0000</r>
       <r>   1.2496  1.0000</r>
       <r>   1.9122  1.0000</r>
       <r>   2.4970  1.0000</r>
       <r>   2.4970  1.0000</r>
       <r>   2.6543  1.0000</r>
       <r>   2.6543  1.0000</r>
       <r>   3.1885  1.0000</r>
       <r>   3.1895  1.0000</r>
       <r>   3.8951  1.0000</r>
       <r>   3.8951  1.0000</r>
       <r>   4.1110  1.0000</r>
       <r>   4.4921  1.0000</r>
       <r>   4.4943  1.0000</r>
       <r>   5.0817  1.0000</r>
       <r>   5.1230  1.0000</r>
       <r>   5.1230  1.0000</r>
       <r>   5.1621  1.0000</r>
       <r>   5.1622  1.0000</r>
       <r>   5.3855  1.0000</r>
       <r>   5.3879  1.0000</r>
       <r>   5.7886  1.0000</r>
       <r>   5.7895  1.0000</r>
       <r>   5.9944  1.0000</r>
       <r>   5.9955  1.0000</r>
       <r>   6.4170  1.0000</r>
       <r>   6.4190  1.0000</r>
       <r>   6.4350  1.0000</r>
       <r>   6.4357  1.0000</r>
       <r>   6.4371  1.0000</r>
       <r>   6.4381  1.0000</r>
       <r>   6.6616  0.0000</r>
       <r>   6.6637  0.0000</r>
       <r>   6.6659  0.0000</r>
       <r>   7.3005  0.0000</r>
       <r>   7.3013  0.0000</r>
       <r>   7.7202  0.0000</r>
       <r>   7.7218  0.0000</r>
       <r>   7.7219  0.0000</r>
       <r>   7.7220  0.0000</r>
       <r>   7.7228  0.0000</r>
       <r>   7.7245  0.0000</r>
       <r>   7.7296  0.0000</r>
       <r>   7.9358  0.0000</r>
       <r>   7.9360  0.0000</r>
       <r>   7.9395  0.0000</r>
       <r>   7.9413  0.0000</r>
       <r>   7.9580  0.0000</r>
       <r>   7.9581  0.0000</r>
       <r>   8.5839  0.0000</r>
       <r>   8.5860  0.0000</r>
       <r>   9.0099  0.0000</r>
       <r>   9.0100  0.0000</r>
       <r>   9.2202  0.0000</r>
      </set>
      <set comment="kpoint 7">
       <r>  -3.3122  1.0000</r>
       <r>  -2.6284  1.0000</r>
       <r>  -1.9476  1.0000</r>
       <r>  -1.2709  1.0000</r>
       <r>  -1.2696  1.0000</r>
       <r>  -1.2683  1.0000</r>
       <r>  -0.5959  1.0000</r>
       <r>  -0.5946  1.0000</r>
       <r>  -0.5933  1.0000</r>
       <r>   0.0755  1.0000</r>
       <r>   0.0776  1.0000</r>
       <r>   0.0776  1.0000</r>
       <r>   0.0794  1.0000</r>
       <r>   0.7465  1.0000</r>
       <r>   0.7465  1.0000</r>
       <r>   1.4128  1.0000</r>
       <r>   1.4137  1.0000</r>
       <r>   1.4141  1.0000</r>
       <r>   2.0668  1.0000</r>
       <r>   2.0742  1.0000</r>
       <r>   2.0746  1.0000</r>
       <r>   2.0775  1.0000</r>
       <r>   2.0782  1.0000</r>
       <r>   2.7386  1.0000</r>
       <r>   3.3524  1.0000</r>
       <r>   3.3854  1.0000</r>
       <r>   3.4031  1.0000</r>
       <r>   3.4031  1.0000</r>
       <r>   4.0050  1.0000</r>
       <r>   4.0405  1.0000</r>
       <r>   4.0405  1.0000</r>
       <r>   4.2703  1.0000</r>
       <r>   4.6936  1.0000</r>
       <r>   4.7111  1.0000</r>
       <r>   4.7111  1.0000</r>
       <r>   4.9081  1.0000</r>
       <r>   5.2501  1.0000</r>
       <r>   5.3052  1.0000</r>
       <r>   5.3053  1.0000</r>
       <r>   5.3469  1.0000</r>
       <r>   5.3470  1.0000</r>
       <r>   5.5462  1.0000</r>
       <r>   5.9193  1.0000</r>
       <r>   5.9523  1.0000</r>
       <r>   5.9523  1.0000</r>
       <r>   6.1593  1.0000</r>
       <r>   6.1844  1.0000</r>
       <r>   6.5833  0.9964</r>
       <r>   6.5959  0.8206</r>
       <r>   6.6418  0.0000</r>
       <r>   6.6418  0.0000</r>
       <r>   6.8137  0.0000</r>
       <r>   6.8236  0.0000</r>
       <r>   7.2408  0.0000</r>
       <r>   7.4182  0.0000</r>
       <r>   7.4607  0.0000</r>
       <r>   7.4640  0.0000</r>
       <r>   7.8845  0.0000</r>
       <r>   8.1082  0.0000</r>
       <r>   8.1082  0.0000</r>
       <r>   8.5049  0.0000</r>
       <r>   8.5172  0.0000</r>
       <r>   8.5204  0.0000</r>
       <r>   8.5204  0.0000</r>
       <r>   8.5304  0.0000</r>
       <r>   8.7055  0.0000</r>
       <r>   8.7385  0.0000</r>
       <r>   8.7503  0.0000</r>
       <r>   8.7504  0.0000</r>
       <r>   9.3401  0.0000</r>
       <r>   9.3410  0.0000</r>
       <r>   9.3705  0.0000</r>
      </set>
      <set comment="kpoint 8">
       <r>  -3.0283  1.0000</r>
       <r>  -3.0256  1.0000</r>
       <r>  -1.6661  1.0000</r>
       <r>  -1.6635  1.0000</r>
       <r>  -0.9899  1.0000</r>
       <r>  -0.9888  1.0000</r>
       <r>  -0.9873  1.0000</r>
       <r>  -0.9861  1.0000</r>
       <r>  -0.3154  1.0000</r>
       <r>  -0.3128  1.0000</r>
       <r>   0.3547  1.0000</r>
       <r>   0.3559  1.0000</r>
       <r>   0.3574  1.0000</r>
       <r>   0.3585  1.0000</r>
       <r>   1.0218  1.0000</r>
       <r>   1.0233  1.0000</r>
       <r>   1.6881  1.0000</r>
       <r>   1.6892  1.0000</r>
       <r>   1.6908  1.0000</r>
       <r>   1.6919  1.0000</r>
       <r>   2.3498  1.0000</r>
       <r>   2.3513  1.0000</r>
       <r>   3.0097  1.0000</r>
       <r>   3.0098  1.0000</r>
       <r>   3.0112  1.0000</r>
       <r>   3.0113  1.0000</r>
       <r>   3.6232  1.0000</r>
       <r>   3.6259  1.0000</r>
       <r>   3.6673  1.0000</r>
       <r>   3.6688  1.0000</r>
       <r>   4.3256  1.0000</r>
       <r>   4.3257  1.0000</r>
       <r>   4.3272  1.0000</r>
       <r>   4.3272  1.0000</r>
       <r>   4.5346  1.0000</r>
       <r>   4.5374  1.0000</r>
       <r>   5.5286  1.0000</r>
       <r>   5.5311  1.0000</r>
       <r>   5.5730  1.0000</r>
       <r>   5.5743  1.0000</r>
       <r>   5.5757  1.0000</r>
       <r>   5.5770  1.0000</r>
       <r>   5.6284  1.0000</r>
       <r>   5.6284  1.0000</r>
       <r>   5.6299  1.0000</r>
       <r>   5.6299  1.0000</r>
       <r>   5.8107  1.0000</r>
       <r>   5.8135  1.0000</r>
       <r>   6.4312  1.0000</r>
       <r>   6.4338  1.0000</r>
       <r>   6.8568  0.0000</r>
       <r>   6.8593  0.0000</r>
       <r>   7.0881  0.0000</r>
       <r>   7.0909  0.0000</r>
       <r>   7.5017  0.0000</r>
       <r>   7.5034  0.0000</r>
       <r>   8.1532  0.0000</r>
       <r>   8.1557  0.0000</r>
       <r>   8.3673  0.0000</r>
       <r>   8.3695  0.0000</r>
       <r>   8.3746  0.0000</r>
       <r>   8.3757  0.0000</r>
       <r>   8.3774  0.0000</r>
       <r>   8.3781  0.0000</r>
       <r>   8.9626  0.0000</r>
       <r>   8.9642  0.0000</r>
       <r>   9.3900  0.0000</r>
       <r>   9.3906  0.0000</r>
       <r>   9.4180  0.0000</r>
       <r>   9.4183  0.0000</r>
       <r>   9.4198  0.0000</r>
       <r>   9.4201  0.0000</r>
      </set>
      <set comment="kpoint 9">
       <r>  -3.3693  1.0000</r>
       <r>  -2.6853  1.0000</r>
       <r>  -1.3286  1.0000</r>
       <r>  -1.3259  1.0000</r>
       <r>  -1.3259  1.0000</r>
       <r>  -1.3233  1.0000</r>
       <r>  -0.6534  1.0000</r>
       <r>  -0.6507  1.0000</r>
       <r>  -0.6507  1.0000</r>
       <r>  -0.6480  1.0000</r>
       <r>   0.0213  1.0000</r>
       <r>   0.6893  1.0000</r>
       <r>   0.6904  1.0000</r>
       <r>   0.6924  1.0000</r>
       <r>   0.6935  1.0000</r>
       <r>   1.3551  1.0000</r>
       <r>   1.3562  1.0000</r>
       <r>   1.3582  1.0000</r>
       <r>   1.3594  1.0000</r>
       <r>   2.0120  1.0000</r>
       <r>   2.0195  1.0000</r>
       <r>   2.0221  1.0000</r>
       <r>   2.0221  1.0000</r>
       <r>   2.0248  1.0000</r>
       <r>   3.9836  1.0000</r>
       <r>   3.9863  1.0000</r>
       <r>   3.9863  1.0000</r>
       <r>   3.9890  1.0000</r>
       <r>   4.0011  1.0000</r>
       <r>   4.0022  1.0000</r>
       <r>   4.0042  1.0000</r>
       <r>   4.0054  1.0000</r>
       <r>   4.2172  1.0000</r>
       <r>   4.2172  1.0000</r>
       <r>   4.8549  1.0000</r>
       <r>   4.8549  1.0000</r>
       <r>   5.1940  1.0000</r>
       <r>   5.1940  1.0000</r>
       <r>   5.8640  1.0000</r>
       <r>   5.8641  1.0000</r>
       <r>   5.9395  1.0000</r>
       <r>   5.9407  1.0000</r>
       <r>   5.9427  1.0000</r>
       <r>   5.9439  1.0000</r>
       <r>   6.1290  1.0000</r>
       <r>   6.1315  1.0000</r>
       <r>   6.1315  1.0000</r>
       <r>   6.1340  1.0000</r>
       <r>   6.7672  0.0000</r>
       <r>   6.7697  0.0000</r>
       <r>   6.7697  0.0000</r>
       <r>   6.7722  0.0000</r>
       <r>   7.1822  0.0000</r>
       <r>   7.1841  0.0000</r>
       <r>   7.1841  0.0000</r>
       <r>   7.1859  0.0000</r>
       <r>   7.3641  0.0000</r>
       <r>   7.4098  0.0000</r>
       <r>   7.4098  0.0000</r>
       <r>   7.8343  0.0000</r>
       <r>   7.8361  0.0000</r>
       <r>   7.8362  0.0000</r>
       <r>   7.8380  0.0000</r>
       <r>   8.4636  0.0000</r>
       <r>   8.4637  0.0000</r>
       <r>   9.2845  0.0000</r>
       <r>   9.2871  0.0000</r>
       <r>   9.2874  0.0000</r>
       <r>   9.2896  0.0000</r>
       <r>   9.3218  0.0000</r>
       <r>   9.3230  0.0000</r>
       <r>   9.3244  0.0000</r>
      </set>
      <set comment="kpoint 10">
       <r>  -3.3122  1.0000</r>
       <r>  -2.6284  1.0000</r>
       <r>  -1.9476  1.0000</r>
       <r>  -1.2709  1.0000</r>
       <r>  -1.2696  1.0000</r>
       <r>  -1.2683  1.0000</r>
       <r>  -0.5959  1.0000</r>
       <r>  -0.5946  1.0000</r>
       <r>  -0.5933  1.0000</r>
       <r>   0.0755  1.0000</r>
       <r>   0.0775  1.0000</r>
       <r>   0.0776  1.0000</r>
       <r>   0.0795  1.0000</r>
       <r>   0.7465  1.0000</r>
       <r>   0.7465  1.0000</r>
       <r>   1.4121  1.0000</r>
       <r>   1.4137  1.0000</r>
       <r>   1.4149  1.0000</r>
       <r>   2.0669  1.0000</r>
       <r>   2.0748  1.0000</r>
       <r>   2.0749  1.0000</r>
       <r>   2.0773  1.0000</r>
       <r>   2.0774  1.0000</r>
       <r>   2.7386  1.0000</r>
       <r>   3.3524  1.0000</r>
       <r>   3.3854  1.0000</r>
       <r>   3.4031  1.0000</r>
       <r>   3.4031  1.0000</r>
       <r>   4.0050  1.0000</r>
       <r>   4.0405  1.0000</r>
       <r>   4.0405  1.0000</r>
       <r>   4.2703  1.0000</r>
       <r>   4.6936  1.0000</r>
       <r>   4.7111  1.0000</r>
       <r>   4.7111  1.0000</r>
       <r>   4.9081  1.0000</r>
       <r>   5.2501  1.0000</r>
       <r>   5.3053  1.0000</r>
       <r>   5.3053  1.0000</r>
       <r>   5.3469  1.0000</r>
       <r>   5.3469  1.0000</r>
       <r>   5.5462  1.0000</r>
       <r>   5.9192  1.0000</r>
       <r>   5.9523  1.0000</r>
       <r>   5.9523  1.0000</r>
       <r>   6.1593  1.0000</r>
       <r>   6.1844  1.0000</r>
       <r>   6.5833  0.9964</r>
       <r>   6.5958  0.8211</r>
       <r>   6.6418  0.0000</r>
       <r>   6.6418  0.0000</r>
       <r>   6.8137  0.0000</r>
       <r>   6.8236  0.0000</r>
       <r>   7.2408  0.0000</r>
       <r>   7.4182  0.0000</r>
       <r>   7.4613  0.0000</r>
       <r>   7.4633  0.0000</r>
       <r>   7.8845  0.0000</r>
       <r>   8.1082  0.0000</r>
       <r>   8.1082  0.0000</r>
       <r>   8.5050  0.0000</r>
       <r>   8.5167  0.0000</r>
       <r>   8.5204  0.0000</r>
       <r>   8.5210  0.0000</r>
       <r>   8.5303  0.0000</r>
       <r>   8.7055  0.0000</r>
       <r>   8.7385  0.0000</r>
       <r>   8.7503  0.0000</r>
       <r>   8.7504  0.0000</r>
       <r>   9.3401  0.0000</r>
       <r>   9.3404  0.0000</r>
       <r>   9.3745  0.0000</r>
      </set>
      <set comment="kpoint 11">
       <r>  -3.1410  1.0000</r>
       <r>  -2.4591  1.0000</r>
       <r>  -2.4569  1.0000</r>
       <r>  -1.7779  1.0000</r>
       <r>  -1.1006  1.0000</r>
       <r>  -1.1006  1.0000</r>
       <r>  -0.4279  1.0000</r>
       <r>  -0.4270  1.0000</r>
       <r>  -0.4257  1.0000</r>
       <r>  -0.4248  1.0000</r>
       <r>   0.2429  1.0000</r>
       <r>   0.2448  1.0000</r>
       <r>   0.2449  1.0000</r>
       <r>   0.2467  1.0000</r>
       <r>   0.9129  1.0000</r>
       <r>   0.9140  1.0000</r>
       <r>   2.2317  1.0000</r>
       <r>   2.2328  1.0000</r>
       <r>   2.2410  1.0000</r>
       <r>   2.2417  1.0000</r>
       <r>   2.2430  1.0000</r>
       <r>   2.2440  1.0000</r>
       <r>   2.8352  1.0000</r>
       <r>   2.8353  1.0000</r>
       <r>   2.8910  1.0000</r>
       <r>   2.8932  1.0000</r>
       <r>   2.9741  1.0000</r>
       <r>   2.9741  1.0000</r>
       <r>   3.5608  1.0000</r>
       <r>   4.1666  1.0000</r>
       <r>   4.1666  1.0000</r>
       <r>   4.2429  1.0000</r>
       <r>   4.2429  1.0000</r>
       <r>   4.4297  1.0000</r>
       <r>   4.8573  1.0000</r>
       <r>   4.8581  1.0000</r>
       <r>   4.8595  1.0000</r>
       <r>   4.8604  1.0000</r>
       <r>   5.0664  1.0000</r>
       <r>   5.0687  1.0000</r>
       <r>   5.4181  1.0000</r>
       <r>   5.5044  1.0000</r>
       <r>   5.5052  1.0000</r>
       <r>   5.5237  1.0000</r>
       <r>   5.5237  1.0000</r>
       <r>   5.7056  1.0000</r>
       <r>   6.0867  1.0000</r>
       <r>   6.0888  1.0000</r>
       <r>   6.7490  0.0000</r>
       <r>   7.4276  0.0000</r>
       <r>   7.4444  0.0000</r>
       <r>   7.4453  0.0000</r>
       <r>   7.4455  0.0000</r>
       <r>   7.4464  0.0000</r>
       <r>   7.5796  0.0000</r>
       <r>   7.5807  0.0000</r>
       <r>   7.6212  0.0000</r>
       <r>   7.6236  0.0000</r>
       <r>   8.2244  0.0000</r>
       <r>   8.2252  0.0000</r>
       <r>   8.2593  0.0000</r>
       <r>   8.2613  0.0000</r>
       <r>   8.6769  0.0000</r>
       <r>   8.6789  0.0000</r>
       <r>   9.3153  0.0000</r>
       <r>   9.3154  0.0000</r>
       <r>   9.3456  0.0000</r>
       <r>   9.3456  0.0000</r>
       <r>   9.4863  0.0000</r>
       <r>   9.4870  0.0000</r>
       <r>   9.5121  0.0000</r>
       <r>   9.5143  0.0000</r>
      </set>
      <set comment="kpoint 12">
       <r>  -2.8574  1.0000</r>
       <r>  -2.8548  1.0000</r>
       <r>  -2.1756  1.0000</r>
       <r>  -2.1730  1.0000</r>
       <r>  -0.8212  1.0000</r>
       <r>  -0.8201  1.0000</r>
       <r>  -0.8186  1.0000</r>
       <r>  -0.8175  1.0000</r>
       <r>  -0.1482  1.0000</r>
       <r>  -0.1471  1.0000</r>
       <r>  -0.1456  1.0000</r>
       <r>  -0.1445  1.0000</r>
       <r>   0.5224  1.0000</r>
       <r>   0.5250  1.0000</r>
       <r>   1.1883  1.0000</r>
       <r>   1.1898  1.0000</r>
       <r>   1.8530  1.0000</r>
       <r>   1.8544  1.0000</r>
       <r>   2.5062  1.0000</r>
       <r>   2.5089  1.0000</r>
       <r>   2.5145  1.0000</r>
       <r>   2.5155  1.0000</r>
       <r>   2.5171  1.0000</r>
       <r>   2.5181  1.0000</r>
       <r>   3.1733  1.0000</r>
       <r>   3.1734  1.0000</r>
       <r>   3.1748  1.0000</r>
       <r>   3.1750  1.0000</r>
       <r>   3.8354  1.0000</r>
       <r>   3.8355  1.0000</r>
       <r>   3.8369  1.0000</r>
       <r>   3.8369  1.0000</r>
       <r>   4.4768  1.0000</r>
       <r>   4.4780  1.0000</r>
       <r>   4.4795  1.0000</r>
       <r>   4.4807  1.0000</r>
       <r>   4.4846  1.0000</r>
       <r>   4.4862  1.0000</r>
       <r>   4.6940  1.0000</r>
       <r>   4.6968  1.0000</r>
       <r>   5.3320  1.0000</r>
       <r>   5.3348  1.0000</r>
       <r>   5.6954  1.0000</r>
       <r>   5.6979  1.0000</r>
       <r>   6.3624  1.0000</r>
       <r>   6.3649  1.0000</r>
       <r>   6.4196  1.0000</r>
       <r>   6.4212  1.0000</r>
       <r>   6.4368  1.0000</r>
       <r>   6.4368  1.0000</r>
       <r>   6.4383  1.0000</r>
       <r>   6.4384  1.0000</r>
       <r>   7.8481  0.0000</r>
       <r>   7.8507  0.0000</r>
       <r>   7.8868  0.0000</r>
       <r>   7.8896  0.0000</r>
       <r>   8.3481  0.0000</r>
       <r>   8.3482  0.0000</r>
       <r>   8.3498  0.0000</r>
       <r>   8.3499  0.0000</r>
       <r>   8.5268  0.0000</r>
       <r>   8.5291  0.0000</r>
       <r>   8.9426  0.0000</r>
       <r>   8.9451  0.0000</r>
       <r>   9.1223  0.0000</r>
       <r>   9.1239  0.0000</r>
       <r>   9.1640  0.0000</r>
       <r>   9.1663  0.0000</r>
       <r>   9.5482  0.0000</r>
       <r>   9.5488  0.0000</r>
       <r>   9.7618  0.0000</r>
       <r>   9.7656  0.0000</r>
      </set>
      <set comment="kpoint 13">
       <r>  -3.0840  1.0000</r>
       <r>  -3.0840  1.0000</r>
       <r>  -1.0492  1.0000</r>
       <r>  -1.0447  1.0000</r>
       <r>  -1.0443  1.0000</r>
       <r>  -1.0443  1.0000</r>
       <r>  -1.0443  1.0000</r>
       <r>  -1.0443  1.0000</r>
       <r>  -1.0438  1.0000</r>
       <r>  -1.0394  1.0000</r>
       <r>   0.9640  1.0000</r>
       <r>   0.9666  1.0000</r>
       <r>   0.9674  1.0000</r>
       <r>   0.9678  1.0000</r>
       <r>   0.9690  1.0000</r>
       <r>   0.9691  1.0000</r>
       <r>   0.9694  1.0000</r>
       <r>   0.9699  1.0000</r>
       <r>   0.9711  1.0000</r>
       <r>   0.9736  1.0000</r>
       <r>   2.9529  1.0000</r>
       <r>   2.9532  1.0000</r>
       <r>   2.9558  1.0000</r>
       <r>   2.9558  1.0000</r>
       <r>   2.9558  1.0000</r>
       <r>   2.9558  1.0000</r>
       <r>   2.9583  1.0000</r>
       <r>   2.9586  1.0000</r>
       <r>   4.4828  1.0000</r>
       <r>   4.4829  1.0000</r>
       <r>   4.4829  1.0000</r>
       <r>   4.4829  1.0000</r>
       <r>   4.9221  1.0000</r>
       <r>   4.9230  1.0000</r>
       <r>   4.9235  1.0000</r>
       <r>   4.9239  1.0000</r>
       <r>   4.9255  1.0000</r>
       <r>   4.9259  1.0000</r>
       <r>   4.9264  1.0000</r>
       <r>   4.9274  1.0000</r>
       <r>   5.4740  1.0000</r>
       <r>   5.4741  1.0000</r>
       <r>   5.4741  1.0000</r>
       <r>   5.4741  1.0000</r>
       <r>   6.3928  1.0000</r>
       <r>   6.3970  1.0000</r>
       <r>   6.3974  1.0000</r>
       <r>   6.3974  1.0000</r>
       <r>   6.3974  1.0000</r>
       <r>   6.3974  1.0000</r>
       <r>   6.3978  1.0000</r>
       <r>   6.4021  1.0000</r>
       <r>   7.4531  0.0000</r>
       <r>   7.4562  0.0000</r>
       <r>   7.4566  0.0000</r>
       <r>   7.4566  0.0000</r>
       <r>   7.4566  0.0000</r>
       <r>   7.4566  0.0000</r>
       <r>   7.4570  0.0000</r>
       <r>   7.4601  0.0000</r>
       <r>   8.3154  0.0000</r>
       <r>   8.3154  0.0000</r>
       <r>   8.3154  0.0000</r>
       <r>   8.3155  0.0000</r>
       <r>   8.9101  0.0000</r>
       <r>   8.9101  0.0000</r>
       <r>   9.3375  0.0000</r>
       <r>   9.3375  0.0000</r>
       <r>   9.3375  0.0000</r>
       <r>   9.3375  0.0000</r>
       <r>  10.2244  0.0000</r>
       <r>  10.2250  0.0000</r>
      </set>
      <set comment="kpoint 14">
       <r>  -3.0270  1.0000</r>
       <r>  -3.0270  1.0000</r>
       <r>  -1.6648  1.0000</r>
       <r>  -1.6648  1.0000</r>
       <r>  -0.9880  1.0000</r>
       <r>  -0.9880  1.0000</r>
       <r>  -0.9880  1.0000</r>
       <r>  -0.9880  1.0000</r>
       <r>  -0.3141  1.0000</r>
       <r>  -0.3141  1.0000</r>
       <r>   0.3566  1.0000</r>
       <r>   0.3566  1.0000</r>
       <r>   0.3566  1.0000</r>
       <r>   0.3566  1.0000</r>
       <r>   1.0225  1.0000</r>
       <r>   1.0225  1.0000</r>
       <r>   1.6900  1.0000</r>
       <r>   1.6900  1.0000</r>
       <r>   1.6900  1.0000</r>
       <r>   1.6900  1.0000</r>
       <r>   2.3505  1.0000</r>
       <r>   2.3505  1.0000</r>
       <r>   3.0105  1.0000</r>
       <r>   3.0105  1.0000</r>
       <r>   3.0105  1.0000</r>
       <r>   3.0105  1.0000</r>
       <r>   3.6246  1.0000</r>
       <r>   3.6246  1.0000</r>
       <r>   3.6681  1.0000</r>
       <r>   3.6681  1.0000</r>
       <r>   4.3264  1.0000</r>
       <r>   4.3264  1.0000</r>
       <r>   4.3264  1.0000</r>
       <r>   4.3264  1.0000</r>
       <r>   4.5360  1.0000</r>
       <r>   4.5360  1.0000</r>
       <r>   5.5297  1.0000</r>
       <r>   5.5299  1.0000</r>
       <r>   5.5750  1.0000</r>
       <r>   5.5750  1.0000</r>
       <r>   5.5750  1.0000</r>
       <r>   5.5752  1.0000</r>
       <r>   5.6291  1.0000</r>
       <r>   5.6292  1.0000</r>
       <r>   5.6292  1.0000</r>
       <r>   5.6292  1.0000</r>
       <r>   5.8121  1.0000</r>
       <r>   5.8121  1.0000</r>
       <r>   6.4325  1.0000</r>
       <r>   6.4325  1.0000</r>
       <r>   6.8581  0.0000</r>
       <r>   6.8581  0.0000</r>
       <r>   7.0895  0.0000</r>
       <r>   7.0895  0.0000</r>
       <r>   7.5025  0.0000</r>
       <r>   7.5025  0.0000</r>
       <r>   8.1544  0.0000</r>
       <r>   8.1544  0.0000</r>
       <r>   8.3683  0.0000</r>
       <r>   8.3686  0.0000</r>
       <r>   8.3764  0.0000</r>
       <r>   8.3764  0.0000</r>
       <r>   8.3764  0.0000</r>
       <r>   8.3766  0.0000</r>
       <r>   8.9634  0.0000</r>
       <r>   8.9634  0.0000</r>
       <r>   9.3901  0.0000</r>
       <r>   9.3903  0.0000</r>
       <r>   9.4191  0.0000</r>
       <r>   9.4191  0.0000</r>
       <r>   9.4191  0.0000</r>
       <r>   9.4193  0.0000</r>
      </set>
      <set comment="kpoint 15">
       <r>  -2.8561  1.0000</r>
       <r>  -2.8561  1.0000</r>
       <r>  -2.1743  1.0000</r>
       <r>  -2.1743  1.0000</r>
       <r>  -0.8194  1.0000</r>
       <r>  -0.8194  1.0000</r>
       <r>  -0.8194  1.0000</r>
       <r>  -0.8194  1.0000</r>
       <r>  -0.1464  1.0000</r>
       <r>  -0.1464  1.0000</r>
       <r>  -0.1463  1.0000</r>
       <r>  -0.1463  1.0000</r>
       <r>   0.5237  1.0000</r>
       <r>   0.5237  1.0000</r>
       <r>   1.1891  1.0000</r>
       <r>   1.1891  1.0000</r>
       <r>   1.8537  1.0000</r>
       <r>   1.8537  1.0000</r>
       <r>   2.5074  1.0000</r>
       <r>   2.5076  1.0000</r>
       <r>   2.5163  1.0000</r>
       <r>   2.5163  1.0000</r>
       <r>   2.5163  1.0000</r>
       <r>   2.5165  1.0000</r>
       <r>   3.1741  1.0000</r>
       <r>   3.1741  1.0000</r>
       <r>   3.1741  1.0000</r>
       <r>   3.1741  1.0000</r>
       <r>   3.8362  1.0000</r>
       <r>   3.8362  1.0000</r>
       <r>   3.8362  1.0000</r>
       <r>   3.8362  1.0000</r>
       <r>   4.4787  1.0000</r>
       <r>   4.4787  1.0000</r>
       <r>   4.4788  1.0000</r>
       <r>   4.4788  1.0000</r>
       <r>   4.4854  1.0000</r>
       <r>   4.4854  1.0000</r>
       <r>   4.6954  1.0000</r>
       <r>   4.6954  1.0000</r>
       <r>   5.3334  1.0000</r>
       <r>   5.3334  1.0000</r>
       <r>   5.6967  1.0000</r>
       <r>   5.6967  1.0000</r>
       <r>   6.3637  1.0000</r>
       <r>   6.3637  1.0000</r>
       <r>   6.4203  1.0000</r>
       <r>   6.4204  1.0000</r>
       <r>   6.4375  1.0000</r>
       <r>   6.4375  1.0000</r>
       <r>   6.4376  1.0000</r>
       <r>   6.4377  1.0000</r>
       <r>   7.8494  0.0000</r>
       <r>   7.8494  0.0000</r>
       <r>   7.8882  0.0000</r>
       <r>   7.8882  0.0000</r>
       <r>   8.3490  0.0000</r>
       <r>   8.3490  0.0000</r>
       <r>   8.3490  0.0000</r>
       <r>   8.3490  0.0000</r>
       <r>   8.5280  0.0000</r>
       <r>   8.5280  0.0000</r>
       <r>   8.9439  0.0000</r>
       <r>   8.9439  0.0000</r>
       <r>   9.1231  0.0000</r>
       <r>   9.1231  0.0000</r>
       <r>   9.1652  0.0000</r>
       <r>   9.1652  0.0000</r>
       <r>   9.5485  0.0000</r>
       <r>   9.5485  0.0000</r>
       <r>   9.7597  0.0000</r>
       <r>   9.7621  0.0000</r>
      </set>
      <set comment="kpoint 16">
       <r>  -2.5741  1.0000</r>
       <r>  -2.5719  1.0000</r>
       <r>  -2.5714  1.0000</r>
       <r>  -2.5693  1.0000</r>
       <r>  -0.5420  1.0000</r>
       <r>  -0.5400  1.0000</r>
       <r>  -0.5390  1.0000</r>
       <r>  -0.5387  1.0000</r>
       <r>  -0.5385  1.0000</r>
       <r>  -0.5383  1.0000</r>
       <r>  -0.5372  1.0000</r>
       <r>  -0.5352  1.0000</r>
       <r>   1.4624  1.0000</r>
       <r>   1.4645  1.0000</r>
       <r>   1.4660  1.0000</r>
       <r>   1.4663  1.0000</r>
       <r>   1.4663  1.0000</r>
       <r>   1.4666  1.0000</r>
       <r>   1.4681  1.0000</r>
       <r>   1.4702  1.0000</r>
       <r>   3.3927  1.0000</r>
       <r>   3.3930  1.0000</r>
       <r>   3.3938  1.0000</r>
       <r>   3.3947  1.0000</r>
       <r>   3.3947  1.0000</r>
       <r>   3.3955  1.0000</r>
       <r>   3.3964  1.0000</r>
       <r>   3.3967  1.0000</r>
       <r>   3.5028  1.0000</r>
       <r>   3.5041  1.0000</r>
       <r>   3.5048  1.0000</r>
       <r>   3.5053  1.0000</r>
       <r>   3.5054  1.0000</r>
       <r>   3.5058  1.0000</r>
       <r>   3.5066  1.0000</r>
       <r>   3.5079  1.0000</r>
       <r>   4.9586  1.0000</r>
       <r>   4.9610  1.0000</r>
       <r>   4.9614  1.0000</r>
       <r>   4.9638  1.0000</r>
       <r>   5.4027  1.0000</r>
       <r>   5.4034  1.0000</r>
       <r>   5.4042  1.0000</r>
       <r>   5.4050  1.0000</r>
       <r>   5.9749  1.0000</r>
       <r>   5.9770  1.0000</r>
       <r>   5.9775  1.0000</r>
       <r>   5.9795  1.0000</r>
       <r>   7.3447  0.0000</r>
       <r>   7.3457  0.0000</r>
       <r>   7.3459  0.0000</r>
       <r>   7.3464  0.0000</r>
       <r>   7.3468  0.0000</r>
       <r>   7.3473  0.0000</r>
       <r>   7.3474  0.0000</r>
       <r>   7.3484  0.0000</r>
       <r>   8.7882  0.0000</r>
       <r>   8.7921  0.0000</r>
       <r>   8.7933  0.0000</r>
       <r>   8.7935  0.0000</r>
       <r>   8.7936  0.0000</r>
       <r>   8.7938  0.0000</r>
       <r>   8.7950  0.0000</r>
       <r>   8.7989  0.0000</r>
       <r>   9.3858  0.0000</r>
       <r>   9.3866  0.0000</r>
       <r>   9.3871  0.0000</r>
       <r>   9.3880  0.0000</r>
       <r>   9.3882  0.0000</r>
       <r>   9.3891  0.0000</r>
       <r>   9.3895  0.0000</r>
       <r>   9.3903  0.0000</r>
      </set>
      <set comment="kpoint 17">
       <r>  -3.4836  1.0000</r>
       <r>  -2.1175  1.0000</r>
       <r>  -2.1175  1.0000</r>
       <r>  -1.4403  1.0000</r>
       <r>  -1.4372  1.0000</r>
       <r>  -0.7631  1.0000</r>
       <r>  -0.7630  1.0000</r>
       <r>  -0.7630  1.0000</r>
       <r>  -0.0926  1.0000</r>
       <r>  -0.0906  1.0000</r>
       <r>  -0.0895  1.0000</r>
       <r>  -0.0875  1.0000</r>
       <r>   0.5801  1.0000</r>
       <r>   0.5801  1.0000</r>
       <r>   1.2441  1.0000</r>
       <r>   1.2454  1.0000</r>
       <r>   1.2469  1.0000</r>
       <r>   1.2475  1.0000</r>
       <r>   1.2481  1.0000</r>
       <r>   1.2502  1.0000</r>
       <r>   1.9122  1.0000</r>
       <r>   2.4970  1.0000</r>
       <r>   2.4970  1.0000</r>
       <r>   2.6543  1.0000</r>
       <r>   2.6543  1.0000</r>
       <r>   3.1890  1.0000</r>
       <r>   3.1890  1.0000</r>
       <r>   3.8935  1.0000</r>
       <r>   3.8966  1.0000</r>
       <r>   4.1110  1.0000</r>
       <r>   4.4932  1.0000</r>
       <r>   4.4932  1.0000</r>
       <r>   5.0817  1.0000</r>
       <r>   5.1229  1.0000</r>
       <r>   5.1229  1.0000</r>
       <r>   5.1622  1.0000</r>
       <r>   5.1622  1.0000</r>
       <r>   5.3867  1.0000</r>
       <r>   5.3867  1.0000</r>
       <r>   5.7890  1.0000</r>
       <r>   5.7891  1.0000</r>
       <r>   5.9949  1.0000</r>
       <r>   5.9949  1.0000</r>
       <r>   6.4180  1.0000</r>
       <r>   6.4181  1.0000</r>
       <r>   6.4338  1.0000</r>
       <r>   6.4357  1.0000</r>
       <r>   6.4371  1.0000</r>
       <r>   6.4391  1.0000</r>
       <r>   6.6632  0.0000</r>
       <r>   6.6640  0.0000</r>
       <r>   6.6641  0.0000</r>
       <r>   7.3009  0.0000</r>
       <r>   7.3009  0.0000</r>
       <r>   7.7199  0.0000</r>
       <r>   7.7204  0.0000</r>
       <r>   7.7224  0.0000</r>
       <r>   7.7229  0.0000</r>
       <r>   7.7238  0.0000</r>
       <r>   7.7240  0.0000</r>
       <r>   7.7294  0.0000</r>
       <r>   7.9358  0.0000</r>
       <r>   7.9359  0.0000</r>
       <r>   7.9403  0.0000</r>
       <r>   7.9405  0.0000</r>
       <r>   7.9581  0.0000</r>
       <r>   7.9582  0.0000</r>
       <r>   8.5849  0.0000</r>
       <r>   8.5849  0.0000</r>
       <r>   9.0099  0.0000</r>
       <r>   9.0100  0.0000</r>
       <r>   9.2184  0.0000</r>
      </set>
      <set comment="kpoint 18">
       <r>  -3.4265  1.0000</r>
       <r>  -2.0624  1.0000</r>
       <r>  -2.0608  1.0000</r>
       <r>  -2.0593  1.0000</r>
       <r>  -0.7102  1.0000</r>
       <r>  -0.7072  1.0000</r>
       <r>  -0.7072  1.0000</r>
       <r>  -0.7066  1.0000</r>
       <r>  -0.7065  1.0000</r>
       <r>  -0.7036  1.0000</r>
       <r>   0.6323  1.0000</r>
       <r>   0.6347  1.0000</r>
       <r>   0.6350  1.0000</r>
       <r>   0.6357  1.0000</r>
       <r>   0.6360  1.0000</r>
       <r>   0.6367  1.0000</r>
       <r>   0.6389  1.0000</r>
       <r>   1.9627  1.0000</r>
       <r>   1.9638  1.0000</r>
       <r>   1.9644  1.0000</r>
       <r>   1.9664  1.0000</r>
       <r>   1.9676  1.0000</r>
       <r>   1.9693  1.0000</r>
       <r>   3.2427  1.0000</r>
       <r>   3.2435  1.0000</r>
       <r>   3.2442  1.0000</r>
       <r>   3.2939  1.0000</r>
       <r>   3.2947  1.0000</r>
       <r>   3.2954  1.0000</r>
       <r>   4.5446  1.0000</r>
       <r>   4.5460  1.0000</r>
       <r>   4.5472  1.0000</r>
       <r>   4.5472  1.0000</r>
       <r>   4.5484  1.0000</r>
       <r>   4.5498  1.0000</r>
       <r>   4.6033  1.0000</r>
       <r>   5.8415  1.0000</r>
       <r>   5.8419  1.0000</r>
       <r>   5.8434  1.0000</r>
       <r>   5.8438  1.0000</r>
       <r>   5.8441  1.0000</r>
       <r>   5.8443  1.0000</r>
       <r>   5.8446  1.0000</r>
       <r>   5.8461  1.0000</r>
       <r>   5.8471  1.0000</r>
       <r>   6.0490  1.0000</r>
       <r>   6.0497  1.0000</r>
       <r>   6.0505  1.0000</r>
       <r>   7.1317  0.0000</r>
       <r>   7.1324  0.0000</r>
       <r>   7.1335  0.0000</r>
       <r>   7.1335  0.0000</r>
       <r>   7.1345  0.0000</r>
       <r>   7.1352  0.0000</r>
       <r>   7.3543  0.0000</r>
       <r>   7.3545  0.0000</r>
       <r>   7.3556  0.0000</r>
       <r>   7.3556  0.0000</r>
       <r>   7.3568  0.0000</r>
       <r>   7.3570  0.0000</r>
       <r>   8.4143  0.0000</r>
       <r>   8.4150  0.0000</r>
       <r>   8.4157  0.0000</r>
       <r>   8.6357  0.0000</r>
       <r>   8.6375  0.0000</r>
       <r>   8.6383  0.0000</r>
       <r>   8.6384  0.0000</r>
       <r>   8.6389  0.0000</r>
       <r>   8.6408  0.0000</r>
       <r>   8.6446  0.0000</r>
       <r>   8.6454  0.0000</r>
       <r>   8.6458  0.0000</r>
      </set>
      <set comment="kpoint 19">
       <r>  -3.2552  1.0000</r>
       <r>  -2.5716  1.0000</r>
       <r>  -1.8910  1.0000</r>
       <r>  -1.8910  1.0000</r>
       <r>  -1.2134  1.0000</r>
       <r>  -1.2133  1.0000</r>
       <r>  -0.5386  1.0000</r>
       <r>  -0.5384  1.0000</r>
       <r>  -0.5384  1.0000</r>
       <r>   0.1312  1.0000</r>
       <r>   0.1332  1.0000</r>
       <r>   0.1335  1.0000</r>
       <r>   0.1353  1.0000</r>
       <r>   0.8026  1.0000</r>
       <r>   0.8026  1.0000</r>
       <r>   1.4667  1.0000</r>
       <r>   1.4675  1.0000</r>
       <r>   1.4693  1.0000</r>
       <r>   1.4701  1.0000</r>
       <r>   2.1221  1.0000</r>
       <r>   2.1327  1.0000</r>
       <r>   2.7227  1.0000</r>
       <r>   2.7934  1.0000</r>
       <r>   2.7934  1.0000</r>
       <r>   2.8676  1.0000</r>
       <r>   3.4068  1.0000</r>
       <r>   3.4069  1.0000</r>
       <r>   3.4400  1.0000</r>
       <r>   3.4400  1.0000</r>
       <r>   4.0592  1.0000</r>
       <r>   4.0593  1.0000</r>
       <r>   4.1120  1.0000</r>
       <r>   4.1120  1.0000</r>
       <r>   4.6961  1.0000</r>
       <r>   4.6962  1.0000</r>
       <r>   4.7504  1.0000</r>
       <r>   4.7622  1.0000</r>
       <r>   4.7622  1.0000</r>
       <r>   5.3594  1.0000</r>
       <r>   5.3594  1.0000</r>
       <r>   5.4165  1.0000</r>
       <r>   6.0054  1.0000</r>
       <r>   6.0055  1.0000</r>
       <r>   6.0492  1.0000</r>
       <r>   6.0492  1.0000</r>
       <r>   6.2140  1.0000</r>
       <r>   6.2140  1.0000</r>
       <r>   6.6475  0.0000</r>
       <r>   6.6480  0.0000</r>
       <r>   6.6511  0.0000</r>
       <r>   6.6516  0.0000</r>
       <r>   6.8688  0.0000</r>
       <r>   6.8688  0.0000</r>
       <r>   7.3395  0.0000</r>
       <r>   7.4722  0.0000</r>
       <r>   7.5179  0.0000</r>
       <r>   7.5179  0.0000</r>
       <r>   7.9342  0.0000</r>
       <r>   7.9342  0.0000</r>
       <r>   8.1639  0.0000</r>
       <r>   8.1640  0.0000</r>
       <r>   8.5582  0.0000</r>
       <r>   8.5582  0.0000</r>
       <r>   8.7561  0.0000</r>
       <r>   8.7561  0.0000</r>
       <r>   8.8010  0.0000</r>
       <r>   8.8010  0.0000</r>
       <r>   9.2108  0.0000</r>
       <r>   9.2108  0.0000</r>
       <r>   9.4222  0.0000</r>
       <r>   9.4245  0.0000</r>
       <r>   9.4356  0.0000</r>
      </set>
      <set comment="kpoint 20">
       <r>  -2.9713  1.0000</r>
       <r>  -2.9687  1.0000</r>
       <r>  -1.6106  1.0000</r>
       <r>  -1.6087  1.0000</r>
       <r>  -1.6079  1.0000</r>
       <r>  -1.6061  1.0000</r>
       <r>  -0.2608  1.0000</r>
       <r>  -0.2593  1.0000</r>
       <r>  -0.2585  1.0000</r>
       <r>  -0.2577  1.0000</r>
       <r>  -0.2573  1.0000</r>
       <r>  -0.2556  1.0000</r>
       <r>   1.0759  1.0000</r>
       <r>   1.0782  1.0000</r>
       <r>   1.0791  1.0000</r>
       <r>   1.0799  1.0000</r>
       <r>   1.0815  1.0000</r>
       <r>   1.0828  1.0000</r>
       <r>   2.4040  1.0000</r>
       <r>   2.4051  1.0000</r>
       <r>   2.4053  1.0000</r>
       <r>   2.4059  1.0000</r>
       <r>   2.4067  1.0000</r>
       <r>   2.4082  1.0000</r>
       <r>   3.6774  1.0000</r>
       <r>   3.6777  1.0000</r>
       <r>   3.6802  1.0000</r>
       <r>   3.6803  1.0000</r>
       <r>   3.7212  1.0000</r>
       <r>   3.7218  1.0000</r>
       <r>   3.7227  1.0000</r>
       <r>   3.7233  1.0000</r>
       <r>   3.7265  1.0000</r>
       <r>   3.7280  1.0000</r>
       <r>   4.9792  1.0000</r>
       <r>   4.9809  1.0000</r>
       <r>   4.9819  1.0000</r>
       <r>   4.9836  1.0000</r>
       <r>   5.0318  1.0000</r>
       <r>   5.0325  1.0000</r>
       <r>   5.0333  1.0000</r>
       <r>   5.0340  1.0000</r>
       <r>   6.2730  1.0000</r>
       <r>   6.2734  1.0000</r>
       <r>   6.2757  1.0000</r>
       <r>   6.2761  1.0000</r>
       <r>   6.3301  1.0000</r>
       <r>   6.3317  1.0000</r>
       <r>   6.4855  1.0000</r>
       <r>   6.4860  1.0000</r>
       <r>   6.4881  1.0000</r>
       <r>   6.4886  1.0000</r>
       <r>   7.5549  0.0000</r>
       <r>   7.5554  0.0000</r>
       <r>   7.5566  0.0000</r>
       <r>   7.5572  0.0000</r>
       <r>   7.7862  0.0000</r>
       <r>   7.7866  0.0000</r>
       <r>   7.7888  0.0000</r>
       <r>   7.7892  0.0000</r>
       <r>   8.8341  0.0000</r>
       <r>   8.8350  0.0000</r>
       <r>   8.8359  0.0000</r>
       <r>   8.8368  0.0000</r>
       <r>   9.0159  0.0000</r>
       <r>   9.0175  0.0000</r>
       <r>   9.0621  0.0000</r>
       <r>   9.0639  0.0000</r>
       <r>   9.0647  0.0000</r>
       <r>   9.0665  0.0000</r>
       <r>  10.0580  0.0000</r>
       <r>  10.0633  0.0000</r>
      </set>
      <set comment="kpoint 21">
       <r>  -3.3122  1.0000</r>
       <r>  -2.6284  1.0000</r>
       <r>  -1.9476  1.0000</r>
       <r>  -1.2716  1.0000</r>
       <r>  -1.2696  1.0000</r>
       <r>  -1.2676  1.0000</r>
       <r>  -0.5966  1.0000</r>
       <r>  -0.5946  1.0000</r>
       <r>  -0.5925  1.0000</r>
       <r>   0.0754  1.0000</r>
       <r>   0.0774  1.0000</r>
       <r>   0.0777  1.0000</r>
       <r>   0.0797  1.0000</r>
       <r>   0.7449  1.0000</r>
       <r>   0.7480  1.0000</r>
       <r>   1.4119  1.0000</r>
       <r>   1.4133  1.0000</r>
       <r>   1.4153  1.0000</r>
       <r>   2.0669  1.0000</r>
       <r>   2.0734  1.0000</r>
       <r>   2.0757  1.0000</r>
       <r>   2.0764  1.0000</r>
       <r>   2.0789  1.0000</r>
       <r>   2.7386  1.0000</r>
       <r>   3.3524  1.0000</r>
       <r>   3.3853  1.0000</r>
       <r>   3.4015  1.0000</r>
       <r>   3.4047  1.0000</r>
       <r>   4.0050  1.0000</r>
       <r>   4.0389  1.0000</r>
       <r>   4.0421  1.0000</r>
       <r>   4.2703  1.0000</r>
       <r>   4.6936  1.0000</r>
       <r>   4.7095  1.0000</r>
       <r>   4.7127  1.0000</r>
       <r>   4.9081  1.0000</r>
       <r>   5.2501  1.0000</r>
       <r>   5.3036  1.0000</r>
       <r>   5.3069  1.0000</r>
       <r>   5.3453  1.0000</r>
       <r>   5.3485  1.0000</r>
       <r>   5.5462  1.0000</r>
       <r>   5.9192  1.0000</r>
       <r>   5.9506  1.0000</r>
       <r>   5.9539  1.0000</r>
       <r>   6.1593  1.0000</r>
       <r>   6.1844  1.0000</r>
       <r>   6.5833  0.9964</r>
       <r>   6.5958  0.8220</r>
       <r>   6.6402  0.0000</r>
       <r>   6.6435  0.0000</r>
       <r>   6.8135  0.0000</r>
       <r>   6.8237  0.0000</r>
       <r>   7.2408  0.0000</r>
       <r>   7.4181  0.0000</r>
       <r>   7.4617  0.0000</r>
       <r>   7.4630  0.0000</r>
       <r>   7.8845  0.0000</r>
       <r>   8.1068  0.0000</r>
       <r>   8.1097  0.0000</r>
       <r>   8.5050  0.0000</r>
       <r>   8.5171  0.0000</r>
       <r>   8.5188  0.0000</r>
       <r>   8.5221  0.0000</r>
       <r>   8.5302  0.0000</r>
       <r>   8.7054  0.0000</r>
       <r>   8.7386  0.0000</r>
       <r>   8.7489  0.0000</r>
       <r>   8.7518  0.0000</r>
       <r>   9.3389  0.0000</r>
       <r>   9.3441  0.0000</r>
       <r>   9.3700  0.0000</r>
      </set>
      <set comment="kpoint 22">
       <r>  -3.2552  1.0000</r>
       <r>  -2.5716  1.0000</r>
       <r>  -1.8921  1.0000</r>
       <r>  -1.8899  1.0000</r>
       <r>  -1.2144  1.0000</r>
       <r>  -1.2123  1.0000</r>
       <r>  -0.5402  1.0000</r>
       <r>  -0.5385  1.0000</r>
       <r>  -0.5367  1.0000</r>
       <r>   0.1315  1.0000</r>
       <r>   0.1331  1.0000</r>
       <r>   0.1334  1.0000</r>
       <r>   0.1353  1.0000</r>
       <r>   0.8021  1.0000</r>
       <r>   0.8032  1.0000</r>
       <r>   1.4671  1.0000</r>
       <r>   1.4679  1.0000</r>
       <r>   1.4686  1.0000</r>
       <r>   1.4699  1.0000</r>
       <r>   2.1222  1.0000</r>
       <r>   2.1326  1.0000</r>
       <r>   2.7227  1.0000</r>
       <r>   2.7923  1.0000</r>
       <r>   2.7945  1.0000</r>
       <r>   2.8676  1.0000</r>
       <r>   3.4064  1.0000</r>
       <r>   3.4074  1.0000</r>
       <r>   3.4389  1.0000</r>
       <r>   3.4410  1.0000</r>
       <r>   4.0587  1.0000</r>
       <r>   4.0598  1.0000</r>
       <r>   4.1114  1.0000</r>
       <r>   4.1125  1.0000</r>
       <r>   4.6950  1.0000</r>
       <r>   4.6973  1.0000</r>
       <r>   4.7502  1.0000</r>
       <r>   4.7612  1.0000</r>
       <r>   4.7633  1.0000</r>
       <r>   5.3583  1.0000</r>
       <r>   5.3605  1.0000</r>
       <r>   5.4165  1.0000</r>
       <r>   6.0050  1.0000</r>
       <r>   6.0060  1.0000</r>
       <r>   6.0486  1.0000</r>
       <r>   6.0498  1.0000</r>
       <r>   6.2135  1.0000</r>
       <r>   6.2145  1.0000</r>
       <r>   6.6478  0.0000</r>
       <r>   6.6487  0.0000</r>
       <r>   6.6504  0.0000</r>
       <r>   6.6514  0.0000</r>
       <r>   6.8683  0.0000</r>
       <r>   6.8694  0.0000</r>
       <r>   7.3395  0.0000</r>
       <r>   7.4722  0.0000</r>
       <r>   7.5175  0.0000</r>
       <r>   7.5184  0.0000</r>
       <r>   7.9330  0.0000</r>
       <r>   7.9353  0.0000</r>
       <r>   8.1635  0.0000</r>
       <r>   8.1644  0.0000</r>
       <r>   8.5576  0.0000</r>
       <r>   8.5588  0.0000</r>
       <r>   8.7551  0.0000</r>
       <r>   8.7571  0.0000</r>
       <r>   8.7998  0.0000</r>
       <r>   8.8021  0.0000</r>
       <r>   9.2103  0.0000</r>
       <r>   9.2113  0.0000</r>
       <r>   9.4225  0.0000</r>
       <r>   9.4279  0.0000</r>
       <r>   9.4364  0.0000</r>
      </set>
      <set comment="kpoint 23">
       <r>  -3.0840  1.0000</r>
       <r>  -2.4023  1.0000</r>
       <r>  -2.4001  1.0000</r>
       <r>  -1.7223  1.0000</r>
       <r>  -1.7205  1.0000</r>
       <r>  -1.0455  1.0000</r>
       <r>  -1.0434  1.0000</r>
       <r>  -0.3709  1.0000</r>
       <r>  -0.3699  1.0000</r>
       <r>   0.2984  1.0000</r>
       <r>   0.3006  1.0000</r>
       <r>   0.3009  1.0000</r>
       <r>   0.3032  1.0000</r>
       <r>   0.9676  1.0000</r>
       <r>   0.9690  1.0000</r>
       <r>   0.9704  1.0000</r>
       <r>   1.6335  1.0000</r>
       <r>   1.6357  1.0000</r>
       <r>   2.2868  1.0000</r>
       <r>   2.2879  1.0000</r>
       <r>   2.2949  1.0000</r>
       <r>   2.2960  1.0000</r>
       <r>   2.9458  1.0000</r>
       <r>   2.9480  1.0000</r>
       <r>   2.9560  1.0000</r>
       <r>   2.9582  1.0000</r>
       <r>   3.5701  1.0000</r>
       <r>   3.6028  1.0000</r>
       <r>   3.6039  1.0000</r>
       <r>   3.6147  1.0000</r>
       <r>   3.6207  1.0000</r>
       <r>   3.6219  1.0000</r>
       <r>   4.2206  1.0000</r>
       <r>   4.2228  1.0000</r>
       <r>   4.2604  1.0000</r>
       <r>   4.2626  1.0000</r>
       <r>   4.8734  1.0000</r>
       <r>   4.9119  1.0000</r>
       <r>   4.9130  1.0000</r>
       <r>   4.9270  1.0000</r>
       <r>   5.5597  1.0000</r>
       <r>   5.5607  1.0000</r>
       <r>   5.5621  1.0000</r>
       <r>   5.5642  1.0000</r>
       <r>   6.2260  1.0000</r>
       <r>   6.3779  1.0000</r>
       <r>   6.8089  0.0000</r>
       <r>   6.8112  0.0000</r>
       <r>   6.8548  0.0000</r>
       <r>   6.8557  0.0000</r>
       <r>   7.0303  0.0000</r>
       <r>   7.0324  0.0000</r>
       <r>   7.4525  0.0000</r>
       <r>   7.4538  0.0000</r>
       <r>   7.4812  0.0000</r>
       <r>   7.6335  0.0000</r>
       <r>   7.6346  0.0000</r>
       <r>   7.6805  0.0000</r>
       <r>   8.1395  0.0000</r>
       <r>   8.1404  0.0000</r>
       <r>   8.2783  0.0000</r>
       <r>   8.2792  0.0000</r>
       <r>   8.7171  0.0000</r>
       <r>   8.7185  0.0000</r>
       <r>   8.7618  0.0000</r>
       <r>   8.9181  0.0000</r>
       <r>   8.9192  0.0000</r>
       <r>   9.3534  0.0000</r>
       <r>   9.3557  0.0000</r>
       <r>   9.5556  0.0000</r>
       <r>   9.5632  0.0000</r>
       <r>   9.5808  0.0000</r>
      </set>
[...]
       <r>   5.6967  1.0000</r>
       <r>   6.3637  1.0000</r>
       <r>   6.3637  1.0000</r>
       <r>   6.4204  1.0000</r>
       <r>   6.4204  1.0000</r>
       <r>   6.4358  1.0000</r>
       <r>   6.4361  1.0000</r>
       <r>   6.4390  1.0000</r>
       <r>   6.4393  1.0000</r>
       <r>   7.8492  0.0000</r>
       <r>   7.8494  0.0000</r>
       <r>   7.8882  0.0000</r>
       <r>   7.8885  0.0000</r>
       <r>   8.3473  0.0000</r>
       <r>   8.3475  0.0000</r>
       <r>   8.3506  0.0000</r>
       <r>   8.3507  0.0000</r>
       <r>   8.5280  0.0000</r>
       <r>   8.5280  0.0000</r>
       <r>   8.9438  0.0000</r>
       <r>   8.9439  0.0000</r>
       <r>   9.1230  0.0000</r>
       <r>   9.1231  0.0000</r>
       <r>   9.1652  0.0000</r>
       <r>   9.1653  0.0000</r>
       <r>   9.5485  0.0000</r>
       <r>   9.5485  0.0000</r>
       <r>   9.7613  0.0000</r>
       <r>   9.7639  0.0000</r>
      </set>
      <set comment="kpoint 34">
       <r>  -2.7992  1.0000</r>
       <r>  -2.7992  1.0000</r>
       <r>  -2.1176  1.0000</r>
       <r>  -2.1176  1.0000</r>
       <r>  -1.4390  1.0000</r>
       <r>  -1.4390  1.0000</r>
       <r>  -0.7634  1.0000</r>
       <r>  -0.7634  1.0000</r>
       <r>  -0.0902  1.0000</r>
       <r>  -0.0902  1.0000</r>
       <r>   0.5785  1.0000</r>
       <r>   0.5794  1.0000</r>
       <r>   0.5797  1.0000</r>
       <r>   0.5805  1.0000</r>
       <r>   1.2445  1.0000</r>
       <r>   1.2445  1.0000</r>
       <r>   1.9087  1.0000</r>
       <r>   1.9089  1.0000</r>
       <r>   1.9107  1.0000</r>
       <r>   1.9108  1.0000</r>
       <r>   2.5625  1.0000</r>
       <r>   2.5625  1.0000</r>
       <r>   2.5704  1.0000</r>
       <r>   2.5704  1.0000</r>
       <r>   3.1716  1.0000</r>
       <r>   3.1716  1.0000</r>
       <r>   3.2931  1.0000</r>
       <r>   3.2931  1.0000</r>
       <r>   3.8369  1.0000</r>
       <r>   3.8371  1.0000</r>
       <r>   3.8419  1.0000</r>
       <r>   3.8422  1.0000</r>
       <r>   3.9278  1.0000</r>
       <r>   3.9278  1.0000</r>
       <r>   4.4784  1.0000</r>
       <r>   4.4784  1.0000</r>
       <r>   4.5435  1.0000</r>
       <r>   4.5436  1.0000</r>
       <r>   4.5553  1.0000</r>
       <r>   4.5554  1.0000</r>
       <r>   5.1836  1.0000</r>
       <r>   5.1836  1.0000</r>
       <r>   5.8439  1.0000</r>
       <r>   5.8439  1.0000</r>
       <r>   6.4723  1.0000</r>
       <r>   6.4723  1.0000</r>
       <r>   6.6520  0.0000</r>
       <r>   6.6520  0.0000</r>
       <r>   7.0783  0.0000</r>
       <r>   7.0783  0.0000</r>
       <r>   7.1362  0.0000</r>
       <r>   7.1362  0.0000</r>
       <r>   7.3024  0.0000</r>
       <r>   7.3024  0.0000</r>
       <r>   7.7160  0.0000</r>
       <r>   7.7161  0.0000</r>
       <r>   7.7618  0.0000</r>
       <r>   7.7618  0.0000</r>
       <r>   7.9036  0.0000</r>
       <r>   7.9036  0.0000</r>
       <r>   8.3566  0.0000</r>
       <r>   8.3566  0.0000</r>
       <r>   8.9831  0.0000</r>
       <r>   8.9831  0.0000</r>
       <r>   9.0400  0.0000</r>
       <r>   9.0400  0.0000</r>
       <r>   9.1767  0.0000</r>
       <r>   9.1767  0.0000</r>
       <r>   9.1846  0.0000</r>
       <r>   9.1846  0.0000</r>
       <r>   9.8050  0.0000</r>
       <r>   9.8232  0.0000</r>
      </set>
      <set comment="kpoint 35">
       <r>  -2.6286  1.0000</r>
       <r>  -2.6285  1.0000</r>
       <r>  -1.9498  1.0000</r>
       <r>  -1.9479  1.0000</r>
       <r>  -1.9476  1.0000</r>
       <r>  -1.9457  1.0000</r>
       <r>  -1.2699  1.0000</r>
       <r>  -1.2699  1.0000</r>
       <r>   0.7444  1.0000</r>
       <r>   0.7462  1.0000</r>
       <r>   0.7466  1.0000</r>
       <r>   0.7484  1.0000</r>
       <r>   1.4096  1.0000</r>
       <r>   1.4106  1.0000</r>
       <r>   1.4124  1.0000</r>
       <r>   1.4127  1.0000</r>
       <r>   1.4131  1.0000</r>
       <r>   1.4144  1.0000</r>
       <r>   2.0733  1.0000</r>
       <r>   2.0734  1.0000</r>
       <r>   2.0755  1.0000</r>
       <r>   2.0755  1.0000</r>
       <r>   2.7261  1.0000</r>
       <r>   2.7271  1.0000</r>
       <r>   2.7274  1.0000</r>
       <r>   2.7279  1.0000</r>
       <r>   2.7340  1.0000</r>
       <r>   2.7344  1.0000</r>
       <r>   3.3822  1.0000</r>
       <r>   3.3841  1.0000</r>
       <r>   3.3844  1.0000</r>
       <r>   3.3863  1.0000</r>
       <r>   4.0562  1.0000</r>
       <r>   4.0562  1.0000</r>
       <r>   4.7040  1.0000</r>
       <r>   4.7041  1.0000</r>
       <r>   4.7062  1.0000</r>
       <r>   4.7063  1.0000</r>
       <r>   5.3556  1.0000</r>
       <r>   5.3563  1.0000</r>
       <r>   5.3568  1.0000</r>
       <r>   5.3575  1.0000</r>
       <r>   5.9923  1.0000</r>
       <r>   5.9932  1.0000</r>
       <r>   5.9933  1.0000</r>
       <r>   5.9942  1.0000</r>
       <r>   6.6342  0.0000</r>
       <r>   6.6349  0.0000</r>
       <r>   6.6353  0.0000</r>
       <r>   6.6360  0.0000</r>
       <r>   7.2787  0.0000</r>
       <r>   7.2788  0.0000</r>
       <r>   7.2809  0.0000</r>
       <r>   7.2810  0.0000</r>
       <r>   7.9090  0.0000</r>
       <r>   7.9090  0.0000</r>
       <r>   7.9379  0.0000</r>
       <r>   7.9379  0.0000</r>
       <r>   8.0637  0.0000</r>
       <r>   8.0645  0.0000</r>
       <r>   8.0648  0.0000</r>
       <r>   8.0656  0.0000</r>
       <r>   8.7058  0.0000</r>
       <r>   8.7067  0.0000</r>
       <r>   8.7068  0.0000</r>
       <r>   8.7077  0.0000</r>
       <r>   9.3359  0.0000</r>
       <r>   9.3359  0.0000</r>
       <r>   9.8317  0.0000</r>
       <r>   9.8325  0.0000</r>
       <r>   9.8327  0.0000</r>
       <r>   9.8336  0.0000</r>
      </set>
      <set comment="kpoint 36">
       <r>  -2.3469  1.0000</r>
       <r>  -2.3448  1.0000</r>
       <r>  -2.3443  1.0000</r>
       <r>  -2.3421  1.0000</r>
       <r>  -1.6674  1.0000</r>
       <r>  -1.6652  1.0000</r>
       <r>  -1.6647  1.0000</r>
       <r>  -1.6626  1.0000</r>
       <r>   1.0220  1.0000</r>
       <r>   1.0241  1.0000</r>
       <r>   1.0246  1.0000</r>
       <r>   1.0268  1.0000</r>
       <r>   1.6837  1.0000</r>
       <r>   1.6858  1.0000</r>
       <r>   1.6874  1.0000</r>
       <r>   1.6876  1.0000</r>
       <r>   1.6877  1.0000</r>
       <r>   1.6879  1.0000</r>
       <r>   1.6895  1.0000</r>
       <r>   1.6916  1.0000</r>
       <r>   2.3459  1.0000</r>
       <r>   2.3480  1.0000</r>
       <r>   2.3496  1.0000</r>
       <r>   2.3498  1.0000</r>
       <r>   2.3499  1.0000</r>
       <r>   2.3501  1.0000</r>
       <r>   2.3517  1.0000</r>
       <r>   2.3538  1.0000</r>
       <r>   2.9991  1.0000</r>
       <r>   3.0012  1.0000</r>
       <r>   3.0017  1.0000</r>
       <r>   3.0039  1.0000</r>
       <r>   4.9727  1.0000</r>
       <r>   4.9749  1.0000</r>
       <r>   4.9764  1.0000</r>
       <r>   4.9767  1.0000</r>
       <r>   4.9768  1.0000</r>
       <r>   4.9770  1.0000</r>
       <r>   4.9785  1.0000</r>
       <r>   4.9807  1.0000</r>
       <r>   5.6213  1.0000</r>
       <r>   5.6222  1.0000</r>
       <r>   5.6229  1.0000</r>
       <r>   5.6238  1.0000</r>
       <r>   6.2698  1.0000</r>
       <r>   6.2707  1.0000</r>
       <r>   6.2714  1.0000</r>
       <r>   6.2723  1.0000</r>
       <r>   6.8999  0.0000</r>
       <r>   6.9022  0.0000</r>
       <r>   6.9038  0.0000</r>
       <r>   6.9040  0.0000</r>
       <r>   6.9041  0.0000</r>
       <r>   6.9043  0.0000</r>
       <r>   6.9059  0.0000</r>
       <r>   6.9082  0.0000</r>
       <r>   8.3304  0.0000</r>
       <r>   8.3325  0.0000</r>
       <r>   8.3330  0.0000</r>
       <r>   8.3352  0.0000</r>
       <r>   8.8378  0.0000</r>
       <r>   8.8387  0.0000</r>
       <r>   8.8394  0.0000</r>
       <r>   8.8403  0.0000</r>
       <r>   9.5984  0.0000</r>
       <r>   9.5992  0.0000</r>
       <r>   9.5997  0.0000</r>
       <r>   9.6006  0.0000</r>
       <r>   9.6008  0.0000</r>
       <r>   9.6016  0.0000</r>
       <r>   9.6022  0.0000</r>
       <r>   9.6030  0.0000</r>
      </set>
      <set comment="kpoint 37">
       <r>  -2.5717  1.0000</r>
       <r>  -2.5717  1.0000</r>
       <r>  -2.5717  1.0000</r>
       <r>  -2.5717  1.0000</r>
       <r>  -0.5437  1.0000</r>
       <r>  -0.5392  1.0000</r>
       <r>  -0.5392  1.0000</r>
       <r>  -0.5387  1.0000</r>
       <r>  -0.5386  1.0000</r>
       <r>  -0.5381  1.0000</r>
       <r>  -0.5381  1.0000</r>
       <r>  -0.5336  1.0000</r>
       <r>   1.4663  1.0000</r>
       <r>   1.4663  1.0000</r>
       <r>   1.4663  1.0000</r>
       <r>   1.4663  1.0000</r>
       <r>   1.4663  1.0000</r>
       <r>   1.4663  1.0000</r>
       <r>   1.4663  1.0000</r>
       <r>   1.4663  1.0000</r>
       <r>   3.3933  1.0000</r>
       <r>   3.3933  1.0000</r>
       <r>   3.3946  1.0000</r>
       <r>   3.3947  1.0000</r>
       <r>   3.3947  1.0000</r>
       <r>   3.3947  1.0000</r>
       <r>   3.3961  1.0000</r>
       <r>   3.3961  1.0000</r>
       <r>   3.5039  1.0000</r>
       <r>   3.5039  1.0000</r>
       <r>   3.5053  1.0000</r>
       <r>   3.5053  1.0000</r>
       <r>   3.5053  1.0000</r>
       <r>   3.5055  1.0000</r>
       <r>   3.5068  1.0000</r>
       <r>   3.5068  1.0000</r>
       <r>   4.9612  1.0000</r>
       <r>   4.9612  1.0000</r>
       <r>   4.9612  1.0000</r>
       <r>   4.9612  1.0000</r>
       <r>   5.4038  1.0000</r>
       <r>   5.4038  1.0000</r>
       <r>   5.4038  1.0000</r>
       <r>   5.4038  1.0000</r>
       <r>   5.9772  1.0000</r>
       <r>   5.9772  1.0000</r>
       <r>   5.9772  1.0000</r>
       <r>   5.9772  1.0000</r>
       <r>   7.3445  0.0000</r>
       <r>   7.3445  0.0000</r>
       <r>   7.3452  0.0000</r>
       <r>   7.3457  0.0000</r>
       <r>   7.3474  0.0000</r>
       <r>   7.3480  0.0000</r>
       <r>   7.3487  0.0000</r>
       <r>   7.3487  0.0000</r>
       <r>   8.7935  0.0000</r>
       <r>   8.7935  0.0000</r>
       <r>   8.7935  0.0000</r>
       <r>   8.7935  0.0000</r>
       <r>   8.7935  0.0000</r>
       <r>   8.7935  0.0000</r>
       <r>   8.7935  0.0000</r>
       <r>   8.7936  0.0000</r>
       <r>   9.3881  0.0000</r>
       <r>   9.3881  0.0000</r>
       <r>   9.3881  0.0000</r>
       <r>   9.3881  0.0000</r>
       <r>   9.3881  0.0000</r>
       <r>   9.3881  0.0000</r>
       <r>   9.3881  0.0000</r>
       <r>   9.3881  0.0000</r>
      </set>
      <set comment="kpoint 38">
       <r>  -2.5149  1.0000</r>
       <r>  -2.5148  1.0000</r>
       <r>  -2.5148  1.0000</r>
       <r>  -2.5148  1.0000</r>
       <r>  -1.1572  1.0000</r>
       <r>  -1.1571  1.0000</r>
       <r>  -1.1571  1.0000</r>
       <r>  -1.1571  1.0000</r>
       <r>   0.1892  1.0000</r>
       <r>   0.1892  1.0000</r>
       <r>   0.1892  1.0000</r>
       <r>   0.1892  1.0000</r>
       <r>   1.5217  1.0000</r>
       <r>   1.5217  1.0000</r>
       <r>   1.5217  1.0000</r>
       <r>   1.5217  1.0000</r>
       <r>   1.5217  1.0000</r>
       <r>   1.5217  1.0000</r>
       <r>   1.5217  1.0000</r>
       <r>   1.5217  1.0000</r>
       <r>   2.8440  1.0000</r>
       <r>   2.8440  1.0000</r>
       <r>   2.8441  1.0000</r>
       <r>   2.8441  1.0000</r>
       <r>   2.8441  1.0000</r>
       <r>   2.8441  1.0000</r>
       <r>   2.8442  1.0000</r>
       <r>   2.8442  1.0000</r>
       <r>   4.1131  1.0000</r>
       <r>   4.1131  1.0000</r>
       <r>   4.1132  1.0000</r>
       <r>   4.1132  1.0000</r>
       <r>   4.1626  1.0000</r>
       <r>   4.1626  1.0000</r>
       <r>   4.1627  1.0000</r>
       <r>   4.1627  1.0000</r>
       <r>   4.1627  1.0000</r>
       <r>   4.1627  1.0000</r>
       <r>   4.1628  1.0000</r>
       <r>   4.1628  1.0000</r>
       <r>   5.4599  1.0000</r>
       <r>   5.4599  1.0000</r>
       <r>   5.4599  1.0000</r>
       <r>   5.4599  1.0000</r>
       <r>   6.7559  0.0000</r>
       <r>   6.7559  0.0000</r>
       <r>   6.7559  0.0000</r>
       <r>   6.7559  0.0000</r>
       <r>   6.9230  0.0000</r>
       <r>   6.9230  0.0000</r>
       <r>   6.9230  0.0000</r>
       <r>   6.9230  0.0000</r>
       <r>   7.9832  0.0000</r>
       <r>   7.9832  0.0000</r>
       <r>   7.9833  0.0000</r>
       <r>   7.9833  0.0000</r>
       <r>   7.9833  0.0000</r>
       <r>   7.9833  0.0000</r>
       <r>   7.9833  0.0000</r>
       <r>   7.9833  0.0000</r>
       <r>   8.0417  0.0000</r>
       <r>   8.0417  0.0000</r>
       <r>   8.0417  0.0000</r>
       <r>   8.0417  0.0000</r>
       <r>   9.4416  0.0000</r>
       <r>   9.4416  0.0000</r>
       <r>   9.4416  0.0000</r>
       <r>   9.4416  0.0000</r>
       <r>   9.4416  0.0000</r>
       <r>   9.4416  0.0000</r>
       <r>   9.4417  0.0000</r>
       <r>   9.4417  0.0000</r>
      </set>
      <set comment="kpoint 39">
       <r>  -2.3446  1.0000</r>
       <r>  -2.3445  1.0000</r>
       <r>  -2.3445  1.0000</r>
       <r>  -2.3445  1.0000</r>
       <r>  -1.6650  1.0000</r>
       <r>  -1.6650  1.0000</r>
       <r>  -1.6650  1.0000</r>
       <r>  -1.6650  1.0000</r>
       <r>   1.0244  1.0000</r>
       <r>   1.0244  1.0000</r>
       <r>   1.0244  1.0000</r>
       <r>   1.0244  1.0000</r>
       <r>   1.6876  1.0000</r>
       <r>   1.6876  1.0000</r>
       <r>   1.6876  1.0000</r>
       <r>   1.6877  1.0000</r>
       <r>   1.6877  1.0000</r>
       <r>   1.6877  1.0000</r>
       <r>   1.6877  1.0000</r>
       <r>   1.6877  1.0000</r>
       <r>   2.3498  1.0000</r>
       <r>   2.3498  1.0000</r>
       <r>   2.3498  1.0000</r>
       <r>   2.3498  1.0000</r>
       <r>   2.3498  1.0000</r>
       <r>   2.3498  1.0000</r>
       <r>   2.3499  1.0000</r>
       <r>   2.3499  1.0000</r>
       <r>   3.0015  1.0000</r>
       <r>   3.0015  1.0000</r>
       <r>   3.0015  1.0000</r>
       <r>   3.0015  1.0000</r>
       <r>   4.9767  1.0000</r>
       <r>   4.9767  1.0000</r>
       <r>   4.9767  1.0000</r>
       <r>   4.9767  1.0000</r>
       <r>   4.9767  1.0000</r>
       <r>   4.9767  1.0000</r>
       <r>   4.9768  1.0000</r>
       <r>   4.9768  1.0000</r>
       <r>   5.6225  1.0000</r>
       <r>   5.6225  1.0000</r>
       <r>   5.6225  1.0000</r>
       <r>   5.6226  1.0000</r>
       <r>   6.2711  1.0000</r>
       <r>   6.2711  1.0000</r>
       <r>   6.2711  1.0000</r>
       <r>   6.2711  1.0000</r>
       <r>   6.9040  0.0000</r>
       <r>   6.9040  0.0000</r>
       <r>   6.9040  0.0000</r>
       <r>   6.9040  0.0000</r>
       <r>   6.9040  0.0000</r>
       <r>   6.9040  0.0000</r>
       <r>   6.9041  0.0000</r>
       <r>   6.9041  0.0000</r>
       <r>   8.3328  0.0000</r>
       <r>   8.3328  0.0000</r>
       <r>   8.3328  0.0000</r>
       <r>   8.3328  0.0000</r>
       <r>   8.8390  0.0000</r>
       <r>   8.8390  0.0000</r>
       <r>   8.8390  0.0000</r>
       <r>   8.8390  0.0000</r>
       <r>   9.6007  0.0000</r>
       <r>   9.6007  0.0000</r>
       <r>   9.6007  0.0000</r>
       <r>   9.6007  0.0000</r>
       <r>   9.6007  0.0000</r>
       <r>   9.6007  0.0000</r>
       <r>   9.6007  0.0000</r>
       <r>   9.6007  0.0000</r>
      </set>
      <set comment="kpoint 40">
       <r>  -2.0655  1.0000</r>
       <r>  -2.0614  1.0000</r>
       <r>  -2.0614  1.0000</r>
       <r>  -2.0611  1.0000</r>
       <r>  -2.0610  1.0000</r>
       <r>  -2.0606  1.0000</r>
       <r>  -2.0606  1.0000</r>
       <r>  -2.0567  1.0000</r>
       <r>   1.9539  1.0000</r>
       <r>   1.9602  1.0000</r>
       <r>   1.9602  1.0000</r>
       <r>   1.9632  1.0000</r>
       <r>   1.9634  1.0000</r>
       <r>   1.9635  1.0000</r>
       <r>   1.9638  1.0000</r>
       <r>   1.9638  1.0000</r>
       <r>   1.9639  1.0000</r>
       <r>   1.9639  1.0000</r>
       <r>   1.9639  1.0000</r>
       <r>   1.9639  1.0000</r>
       <r>   1.9639  1.0000</r>
       <r>   1.9639  1.0000</r>
       <r>   1.9639  1.0000</r>
       <r>   1.9639  1.0000</r>
       <r>   1.9640  1.0000</r>
       <r>   1.9640  1.0000</r>
       <r>   1.9644  1.0000</r>
       <r>   1.9644  1.0000</r>
       <r>   1.9646  1.0000</r>
       <r>   1.9676  1.0000</r>
       <r>   1.9676  1.0000</r>
       <r>   1.9739  1.0000</r>
       <r>   5.8875  1.0000</r>
       <r>   5.8875  1.0000</r>
       <r>   5.8890  1.0000</r>
       <r>   5.8912  1.0000</r>
       <r>   5.8924  1.0000</r>
       <r>   5.8928  1.0000</r>
       <r>   5.8928  1.0000</r>
       <r>   5.8928  1.0000</r>
       <r>   5.8930  1.0000</r>
       <r>   5.8930  1.0000</r>
       <r>   5.8930  1.0000</r>
       <r>   5.8930  1.0000</r>
       <r>   5.8931  1.0000</r>
       <r>   5.8931  1.0000</r>
       <r>   5.8931  1.0000</r>
       <r>   5.8931  1.0000</r>
       <r>   5.8933  1.0000</r>
       <r>   5.8933  1.0000</r>
       <r>   5.8933  1.0000</r>
       <r>   5.8937  1.0000</r>
       <r>   5.8949  1.0000</r>
       <r>   5.8972  1.0000</r>
       <r>   5.8986  1.0000</r>
       <r>   5.8986  1.0000</r>
       <r>   9.7338  0.0000</r>
       <r>   9.7338  0.0000</r>
       <r>   9.7341  0.0000</r>
       <r>   9.7345  0.0000</r>
       <r>   9.7357  0.0000</r>
       <r>   9.7364  0.0000</r>
       <r>   9.7366  0.0000</r>
       <r>   9.7366  0.0000</r>
       <r>   9.8621  0.0000</r>
       <r>   9.8633  0.0000</r>
       <r>   9.8639  0.0000</r>
       <r>   9.8646  0.0000</r>
       <r>   9.8647  0.0000</r>
       <r>   9.8651  0.0000</r>
       <r>   9.8658  0.0000</r>
       <r>   9.8668  0.0000</r>
      </set>
     </set>
    </set>
   </array>
  </eigenvalues>
 </calculation>
 <structure name="finalpos" >
  <crystal>
   <varray name="basis" >
    <v>       8.47811979      0.00000000      0.00000000</v>
    <v>       0.00000000      8.47811979      0.00000000</v>
    <v>       0.00000000      0.00000000      8.47811979</v>
   </varray>
   <i name="volume">    609.39466197</i>
   <varray name="rec_basis" >
    <v>       0.11795068      0.00000000      0.00000000</v>
    <v>       0.00000000      0.11795068      0.00000000</v>
    <v>       0.00000000      0.00000000      0.11795068</v>
   </varray>
  </crystal>
  <varray name="positions" >
   <v>       0.25117951      0.25000000      0.00000000</v>
   <v>       0.75000000      0.25000000      0.00000000</v>
   <v>       0.25000000      0.75000000      0.00000000</v>
   <v>       0.75000000      0.75000000      0.00000000</v>
   <v>       0.25000000      0.25000000      0.50000000</v>
   <v>       0.75000000      0.25000000      0.50000000</v>
   <v>       0.25000000      0.75000000      0.50000000</v>
   <v>       0.75000000      0.75000000      0.50000000</v>
   <v>       0.25000000      0.00000000      0.25000000</v>
   <v>       0.75000000      0.00000000      0.25000000</v>
   <v>       0.25000000      0.50000000      0.25000000</v>
   <v>       0.75000000      0.50000000      0.25000000</v>
   <v>       0.25000000      0.00000000      0.75000000</v>
   <v>       0.75000000      0.00000000      0.75000000</v>
   <v>       0.25000000      0.50000000      0.75000000</v>
   <v>       0.75000000      0.50000000      0.75000000</v>
   <v>       0.00000000      0.25000000      0.25000000</v>
   <v>       0.50000000      0.25000000      0.25000000</v>
   <v>       0.00000000      0.75000000      0.25000000</v>
   <v>       0.50000000      0.75000000      0.25000000</v>
   <v>       0.00000000      0.25000000      0.75000000</v>
   <v>       0.50000000      0.25000000      0.75000000</v>
   <v>       0.00000000      0.75000000      0.75000000</v>
   <v>       0.50000000      0.75000000      0.75000000</v>
   <v>       0.00000000      0.00000000      0.00000000</v>
   <v>       0.50000000      0.00000000      0.00000000</v>
   <v>       0.00000000      0.50000000      0.00000000</v>
   <v>       0.50000000      0.50000000      0.00000000</v>
   <v>       0.00000000      0.00000000      0.50000000</v>
   <v>       0.50000000      0.00000000      0.50000000</v>
   <v>       0.00000000      0.50000000      0.50000000</v>
   <v>       0.50000000      0.50000000      0.50000000</v>
  </varray>
 </structure>
</modeling>
